/*--------------------------------*- C++ -*----------------------------------*\
| =========                 |                                                 |
| \\      /  F ield         | OpenFOAM: The Open Source CFD Toolbox           |
|  \\    /   O peration     | Version:  2.1.0                                 |
|   \\  /    A nd           | Web:      www.OpenFOAM.org                      |
|    \\/     M anipulation  |                                                 |
\*---------------------------------------------------------------------------*/
FoamFile
{
    version     2.0;
    format      ascii;
    class       volScalarField;
    object      k;
}
// * * * * * * * * * * * * * * * * * * * * * * * * * * * * * * * * * * * * * //

dimensions      [0 2 -2 0 0 0 0];


internalField   uniform 0.0550983096374896
;

boundaryField
{
    Inlet
    {
        type            fixedValue;
        value           uniform 0.0550983096374896
;
    }
    Outlet
    {
        type            inletOutlet;
        inletValue      $internalField;
        value           $internalField;
    }
    Head
    {
        type            kqRWallFunction;
        value           $internalField;
    }
    
    Back
    {
        type            empty;
    }
    Front
    {
        type            empty;
    }
    Top
    {
        type            symmetryPlane;
    }
    Bottom
    {
        type            symmetryPlane;
    }
}


// ************************************************************************* //
