/*--------------------------------*- C++ -*----------------------------------*\
| =========                 |                                                 |
| \\      /  F ield         | OpenFOAM: The Open Source CFD Toolbox           |
|  \\    /   O peration     | Version:  dev                                   |
|   \\  /    A nd           | Web:      www.OpenFOAM.org                      |
|    \\/     M anipulation  |                                                 |
\*---------------------------------------------------------------------------*/
FoamFile
{
    version     2.0;
    format      ascii;
    class       volScalarField;
    location    "0.260000";
    object      p_rgh;
}
// * * * * * * * * * * * * * * * * * * * * * * * * * * * * * * * * * * * * * //

dimensions      [1 -1 -2 0 0 0 0];

internalField   nonuniform List<scalar> 
87727
(
23420.1
22781.9
22543.1
23475
22321.4
23517.3
22879.6
22245.4
22569.5
23353.3
22295.4
22327
23309.1
23631
22229.9
23222.1
22443.7
23075.1
23559.9
23420.8
23536.1
22973.8
23158.3
22489.3
22265
22275.6
22620.2
22234.4
22818
23399.7
23224
23398.2
23077.3
23013.9
22767.1
23354.9
23466.4
23443.6
22914.7
22510.8
22838
22800.2
22976.3
23331.1
23497
22726.2
23023.2
23564.4
23401.3
23512.8
23267.1
22320.6
23519.1
22542.7
23287.2
23265.3
22654.9
23356.5
23494.2
22290.4
22289.1
22293.3
22293.8
22278.8
22301.7
22306.7
22290.6
23165.9
22294.1
23670.6
23691.9
23680.9
23335.7
22925.4
23171.1
23023.7
22876.8
22300.8
23701.5
23167.5
22686.7
23369.9
23220.6
23310.7
23422.3
22928.7
23707.6
23473.7
23520.7
22638.9
23564.7
23450.8
23137.3
23118.6
23116.4
23200.7
22449.6
23673.1
22520.8
23713.9
23313.7
23430.5
23586.2
23334.3
23571.4
22305.7
23122.7
23054.6
23453.1
23489.5
22296.1
23375.7
23139.4
23112.3
23359.4
22503.7
22403.6
22400.9
22966.8
23495.6
23274.9
23471.2
22350.1
23263.8
23667.9
22441.1
23243.7
22774.1
23016.3
23332.7
23472.5
22883
22268.9
22813.3
22288.6
22625.4
23363.4
23179.4
23095.7
23338.4
23288.9
23424
22775.9
23034.2
22921.4
23257.1
23204.5
22993.8
22739.2
23181.4
23402.9
22298
23451.8
22765.4
22953.9
23662.4
23417.1
23268.7
22305.7
22443
23497.8
23583.7
22234.5
22934.2
23027.2
23540.4
22302
22303.2
22722.3
22725.1
23214.4
22298.3
22299.4
23616.1
22688
22876.1
22296.9
22295.6
22895.3
22857.1
22744.4
22819.1
23358
22761.7
22762.8
22781.4
23405.6
22377.3
22510.9
22668.2
23360.7
22776.8
22672.5
23290.4
23366.9
22346
22974.6
23445
23121.6
23072.4
22539.1
22807.4
23337.1
23377.3
22829
22690.2
22708.1
22734.6
23319.6
23269.9
22292.3
22290.9
23723
23672.2
23271.5
22935.3
22801.9
22779.1
23470.3
22659.8
22336.4
22591.1
23449.6
22727.2
22276.1
23359.7
22917.5
23318.4
23622.1
22586.1
23417.1
22310.2
22495.8
23317.4
23561.7
23497.9
23378.9
22290.1
22290.5
23452.7
22540.4
22596.9
23276.6
22811
22536.9
22289.6
22289.9
23431.7
22348.5
23622
22949
22230.3
22458.6
22637.5
23202.7
23162.3
22414.8
23316.2
23638.5
22603
23380.4
22334.1
22804.5
23642.3
22357.1
23245.5
22601.8
23537.9
22362.1
23312.2
23339.7
23428.2
23658.9
22929.6
22289.3
22289.1
23079.5
22308.4
23404.3
23474.6
22305.5
23384.5
22923.1
22848.7
22277
22553.1
23668.9
22308.3
22336.5
23204.7
22250.2
22771.5
22518.2
23225.8
22996.2
22304.7
23665.6
22425.7
23297.1
23662
22237.7
23641.5
23313.7
22505
23657.9
23666.7
23705.6
23679.3
23711.9
23699.4
23661.4
22473.8
22284.5
23650
22429.1
22768.6
22359.7
22961.4
22978.8
23295.4
22309.5
22938.4
23609.8
23183.3
23484.1
23718.6
22284.3
23056.9
22932
22606.4
23514.4
23141.4
22374.5
23165.4
22387.5
22229.4
22825.9
22796.9
23670.3
23247.2
22338.4
23211.5
23059.1
23097.9
22316
23459.4
22819.3
23640.9
23362.1
22732
23589.1
22860.4
22966.4
22728.2
22493.4
23451.4
22285.8
22537.9
23646.1
22525.4
22543.4
22734.9
23541.1
22317.3
23160.3
23467.5
23616.6
22307.7
22588.1
22255.6
23227.3
22261.8
23291.8
22294.4
22496.4
22285.5
22286.8
22939.3
22332.5
22244.5
22962.2
23020.9
22675.1
23426.9
23607.4
22241.3
22450.8
23671.7
23617.7
23260.7
22363.8
22385.9
22618.1
22287.9
22790.1
22290.3
22283.6
22290.7
22753.5
23292
22293.8
22293.5
22300.1
22489.1
22305.2
22685.7
22494.7
23381.8
22256
23697.5
23408.4
23660.2
22938.2
23677.7
22808.9
23676.1
23695.6
23688.1
23684.4
23670.3
23717.1
23664.6
23618
23690
23656.7
23383.1
23516.4
23686.2
22956.5
23585
23027.5
22861
22559.1
23592.9
23364.8
22642.6
22238.9
22612.4
23663.6
23492.8
22242.2
23567.5
23638.9
23587
23298
22349.1
23721.2
22969.9
22720.1
22231.8
22239.5
22639.4
22391.3
22815.2
23617.4
23653.3
22680.3
22712.5
22684.5
23510.5
22242.8
22771.4
22229.2
23273.8
23540.3
22407.8
22247.5
23666.9
23296.4
23669.1
22302.7
22642.6
22342.4
23343.3
22921.6
23299.4
22684.6
23168.2
23083.1
22873.2
23217.5
23210.7
23108.1
22669.4
22266.4
22943.1
22684.2
23467.9
23643.1
23386
22419
22614.1
23715.7
22879.1
23674.5
22748.7
22636.1
23709.7
22974.2
22921.4
23518.6
22457.7
23087
22716.9
23703.6
22606.8
22739.5
23023.2
23682.6
23693.7
23246.2
23030.5
22527.9
22309.3
23639.5
23665.8
23143.3
23100
23648.9
23661
23185
23319.5
22367.8
23616.3
23640.2
23061.3
23643.8
23207.7
23206.1
23626.1
23308.3
23340.9
23506.1
23186.7
22994.4
23570.2
23248.7
22369.2
23172.9
23592.7
23617
23320.8
22743.6
23342.1
23090.7
22451.9
22959
22630.6
22286.5
22988.9
22334.3
23491
22319.2
23425.5
23645.4
22352.1
23485.6
22881.1
23616.8
22582.5
23592
22519.5
22637.1
22345.7
23624.8
22883.1
22362.6
23669.8
22381.3
23625.2
22232
23637.9
22557.9
22340.5
23469.6
23231.4
22492.3
22371.5
22670.5
23148.6
22628.6
23094.5
22866.2
22303.8
23618.4
23520.1
22347.9
23619.8
23663.3
22694.7
22898.4
23651.1
23446.8
23186.7
23034
23542.1
23593
22581.9
23568.6
22426.9
23148.2
22326.7
23523.8
23036.6
22249.9
22423.9
23657.7
23162.8
22238.1
23014
22940.5
23637.1
23659.9
23561.6
22317.9
22734.8
22281.9
22727.9
23644.6
23098.6
23593.1
23175.9
23619.2
23516.4
23655.6
22857.7
23149.1
23129.9
23583.2
22982.7
22328.8
23624.1
22304
22465.7
23038.8
22550.8
22873.5
22932.6
22605.7
22248.3
23175.1
23153.2
22259.4
22842.4
22831.6
22706.5
22631.1
23145.2
22785.7
22542.7
23102.7
22441.6
23232.7
23623.1
22343.1
23550.2
22625
22330.8
23001.3
22806.6
22813.5
22377.4
23448.3
22910.7
22401.6
23408.9
23626.2
22464.3
22970.9
22361.3
23041
22354.8
22409.5
23626
23118.9
23620.2
23480.7
23516.6
22454.3
23133.6
23618.4
22526.6
23104.3
23120.7
23624.5
23126.5
23106.3
23266.9
22981
23146.9
23102.1
22680.3
22679
23568.9
22748.1
22266.5
23647.9
23444.8
22714.6
23138.1
22823.4
23086.4
22707.6
22296.4
22472.2
22661.1
22936.9
23322.2
22521.8
22591.6
22729.5
22890.3
23274.6
23626.2
22933.6
22303
22808.4
22877.2
23250
22862.2
22608.4
22489.6
22267.6
23623.4
23544
23590.6
22512.1
22288.2
22787.1
22794.5
22250.9
22394.8
22268.2
23534.6
22623.6
22998.6
22406.5
22441.9
22836.7
22374.3
23069.3
23143.4
22730.5
22284.1
23020.4
22801.9
22620
23344.5
23069.6
22759.3
23127
22375
22664.8
22646.3
22430.4
22665.9
22488.3
23587.5
22900.8
23620.6
23670.3
23316.7
22636.7
22725.1
22260.9
22338.5
22338.1
22865.2
22532.2
23324
22979
23073.3
23568.1
22241.2
22842.5
22267.5
23477.5
23270.2
23664.6
22849.4
23531.9
23032.2
22484.9
23003.2
23227.9
22312.4
22280.6
22324.3
23654.4
23618.9
23502.1
22357
22473
22653.4
23000.9
22479
22619.6
22476.8
22405
22330
22534.2
22480.9
23652.1
22390.7
22495.4
22370.4
22356.5
22715.3
22404.1
23592.8
22353.2
22855.2
23588.3
23590.8
22362.1
22973
22888.4
23252.4
22319.3
22765.4
22383.1
22618.2
23563.1
22376.9
22726.2
23164.1
23591.2
22494.2
22344.2
22316.1
22748.2
22436.1
23179.2
23007.4
23045.6
22721
22863.2
22294.5
22612.8
22575.5
23413.8
22272.8
23647
23569
23541.9
22503.7
23552.5
22509.3
22753.1
22311.1
22655.2
22341
23031.5
23554.7
22308.6
22301.5
22435.8
23106.4
22292
22299.6
23592.8
23293.1
23037.8
22347.2
23583.9
22255.1
22580.6
22352.9
22911.8
23081.6
22393.8
22724.6
23251.3
22541.3
22813.9
23593
22859.5
22285.5
23512.7
23616.7
22575.1
23347.6
22514.9
22935.7
22502.7
22965.4
22832.6
22770.9
23472.1
22393.9
22599.5
23051
23667.9
22803.1
23126.6
22343.8
22570.2
23568.9
23456.8
23182.2
23066.1
23046.6
22307.2
22325.3
22281.6
22331.9
22675.3
23592.3
22522.9
23568.6
22797.9
23017.3
22729.8
22630.9
23315
23625.8
23557
22314.6
23382.4
22376.9
22291.7
23543.1
22643.1
23541
22631.3
23089.4
22359.3
22369.2
22727.1
23363.9
22304.3
23150.5
22981.1
22830.4
23585.7
22665.1
22366.3
22694.7
23499.9
22987.8
23227.6
22897.4
23567
22240.7
23622.5
23340.2
22914.4
23619.4
22332.3
22761
22587.8
22655.7
22357.4
23671.4
23622.8
22470
22292.9
23429.5
23625.2
22921.8
23621.6
22351.6
22479.6
22345.7
22503
22368.7
22941.5
23618.6
22901.1
22354.4
22957.7
23228.8
23061.3
23050.4
22335.2
22593.8
23156.6
22576.5
22528.6
22901.1
22257.9
22343.3
22757.5
22313.6
23621.1
23530.5
22510
22457.9
22799
23541
22875.4
23503.4
22445.1
23233.6
23196.2
22475.1
23560.8
22845.1
22803.2
22699.1
22352.9
23345.6
22649.7
22299.6
22377.6
22822.9
23018.6
22338.3
22704.8
22403.4
22807.9
22518.7
22755.4
23409.9
23300.9
22616.6
22844.1
23152.2
23153.2
22547.8
22290.1
22251.7
22777.3
23582.3
23112.4
23591
23658.8
23584.4
23623.7
22301.1
22655
22593.7
23623.2
22297.1
23517.9
23589.6
22365
22480.1
22587.5
22282.7
22280.8
22770.5
22889.9
22364.8
22677.2
23230.1
22421.6
22869.9
22554.4
22446.9
23083.9
22864.9
22381.5
22637.7
22357.1
22811
22841.9
22983.5
23432.7
22414.5
22378.2
23366.2
22689.7
22482
22316.4
23014.9
23492.4
22298.5
22258.1
23043.3
22535.2
22487.4
22871.8
23591.5
22739.4
22394.4
22546.2
22249.5
23116.9
22532.7
22382
22900.9
22487.4
23548.8
22980
23545.6
23448.7
22271.6
22298.7
23019
23625.5
22360.8
22882.8
22402.9
22517.6
22470.4
22304.7
23586.5
22263.4
22681.8
23457.7
23341.3
22968.9
22327.2
22369.6
22719.5
22911
23587.9
22491.6
22309.8
22389.1
22839.6
22642.1
23054.1
23106.3
23463
23062
23057.5
22345.8
22389.8
23422.6
22321.8
22879
22848.3
22709.8
22270.3
22724.3
23490.4
23460.2
22399.8
23535.9
22494.9
22453
22426.4
22682.4
22326.3
23475.2
22766.3
22378.9
23434
22361.2
23542.7
22329.3
23560
22334.3
22813.7
22765.1
22407.5
22340.5
23442.8
23190
23501.3
22428.2
22314.7
22352.6
23277.1
22359.2
22238.4
23160.2
22648.1
22410.6
23188.3
23050.1
22420.1
22469.7
23110.3
22420.6
22564.3
22307.7
22917.7
22744.8
23565.6
23439
22536.1
22258.2
23591.7
22699.9
22669.9
22495
22583.8
22549.5
23495.8
22746.2
22779.5
23463.9
22371.9
23564.8
23065.8
22828.9
22248.7
22863.7
22396.8
22258.6
23621.1
22319.6
23124.7
22434.8
23499.6
23429.4
23031.4
23064.2
23395.9
23538.6
23202.2
22893.9
22804.4
22561.5
22296.7
22401.2
23537.3
23590
23114.6
22575.4
22842.3
22280.2
22386.1
22869
23496.9
22734.3
22729.7
22568.6
22465
22257.2
22511.3
22639.7
22857.1
23388.7
22917.5
22248
22837.5
22538.1
23314.1
23407
23588.6
22994.1
23294.3
23064.2
23591.3
23150.6
22585.8
22248.1
23587.2
22460.1
23060.5
22372.4
23507.9
22432.4
22750.1
22311.1
22836.3
23592.5
23559
23118.9
23055.8
23412.1
23062.2
23592.7
22415.5
23401.7
23490.6
23511.4
22431
23155.1
23463.9
22272.8
23025.6
22634.4
22308
23226.9
22565
22986.1
22520
22710.2
23544.8
23010.4
23372.8
23063.8
22796.9
22337.6
22306.1
23545
22344.8
22690.3
22932.6
22904.5
23366.7
22418.6
23437.6
22646.8
23236.8
22306.8
22945.2
22370.4
23123.4
23006.8
22852.1
22471.5
22498
22445.6
22524.9
22659.8
22729.7
22552.3
22372.8
23563.9
22282.4
22919.8
22371.6
22289.3
23544
23149.7
23365.9
22381.9
23170.8
22739.5
22327.7
23362.8
22769.8
22372.1
22645.9
23562.3
22547.2
23093.3
22679.7
22961.4
23208.3
22967.7
22897
22332
23153
23127.7
23031.6
22444.4
23278.4
23017.1
22847.1
22357.5
23039.3
22410.4
22825.9
23147.9
22415.6
22331.4
23027.5
22625.1
22648.2
22636.2
22848
23514.7
23413
23479.7
22633.8
22271.2
22505.4
23372.9
22316.7
22992.3
23545.1
22437.7
22389.2
22384.2
22655.9
22324.5
23006.9
22690.1
22679.1
22905.1
22906.5
23231.2
23061.2
22389.6
22503
22922.3
22597.1
22599.9
22323.5
23488.3
22302
23161.4
23474.6
22694.8
22383.1
23566.2
22280.4
23527.4
22677.9
22668.4
22370.9
23336.5
22843.4
23461.8
22773.8
22467.6
22367.6
22496.9
22526.6
23590.3
22451.2
23070.8
22943.4
22687.6
22422.2
23451.4
23004.6
23151.5
22775.9
22287.8
22279.6
22659.8
23454.1
23465.7
22262
22764.5
22949.6
22839.9
23654.4
23198.7
22853.9
22835.4
22718.5
23522
22685.3
23157.5
23439.7
23312.8
23181.7
22447
22272.4
23022
23272.6
23240
23178.2
22809.3
23169.1
22456.7
23521.3
22431.6
22407.2
23409.6
22288.4
22516.4
22423.9
23430.4
22953.1
22786.1
22822.8
22558
23123.1
23164.8
22380.5
23065.2
22412.7
22766.6
23555.9
23272.7
23525.6
23378
23337
23147.9
22728.3
22398
22719.3
23088.5
22631.6
22974.6
22949
23419.1
22847
22266.9
22378.9
22915.8
22940
22276.6
22410.6
23383.3
22430.7
23179
22962.5
22306.2
23401
23064.8
22349.3
23108.8
22963.8
22554.1
22702.6
22412
22752.6
22785.3
23309.6
22826
23240.3
23455.7
22963.4
23437.7
22816.1
23002.1
23204.9
22845.9
22529.9
22373.2
22438.8
22542.6
22383.9
22373.8
23551.3
22511
23040.1
23066.8
22288
22819.7
23020.7
23428.6
23243.6
22501.8
23457.7
23294.7
22507.5
22386.8
22526
22751
22843.3
22749.8
22326.4
22818.1
23423.2
22397
23301.4
23472.4
22517
22943.7
22936.3
22546.1
22817.9
23287
22526
22267.3
22760.1
22296.8
23456.2
22335.1
22455.2
23212.2
22745
22334.4
22956.8
23108.8
22645.3
22452.5
22998.5
23655.8
23396.2
23621.4
22350
23103.1
22363
22617.5
22732.1
23342.2
22757.5
23558
22758.3
22398.2
22462.1
23336.6
23466
23325
22738
22513.6
22413.8
22704.5
22780.4
22828.4
22799.5
23319.5
22295.7
22390.2
22335.1
22536.2
22512.8
22720.9
22494.1
23369.4
22538.5
23063.6
22368.4
22605.4
23436.3
22436.2
22494.2
23514.7
23354.2
23035.8
22480.9
22277
22477.5
23478
23500
23352.5
23008.1
22920.6
22374.9
22605.6
23204.5
22528.8
23520.5
22482.2
22427
22431.3
23521.3
23410.9
22792.1
23201.8
23310.9
22401.4
23529
23211.9
22591.7
22576.3
22331.9
23347.3
22479.9
22443
23253.4
23015.4
22791.9
22407
23435.3
23333.3
23112
22556.7
23282
23569.2
22986.1
22424.8
22349.4
22856
22518.4
22796.9
23116.3
22430.6
22457
23493.1
22897.3
22275.4
23209.1
23504.2
23454.6
22238.8
23306.1
23481.9
23426.5
23361.3
22567.3
23275.6
22828
22504.2
22555.6
23387.4
22529.6
22353.4
23400.3
22463.3
23005.6
22537.8
22946.3
22532.1
23292.1
22449.9
22326.8
22561.2
23303.5
22416.6
22438.4
22527.9
22296.7
22950.8
22793
23505.7
23445.9
22979.8
23074.1
23020
23001
23467
23202.8
22744.5
22562.6
22681.7
22300
22917.4
23383.9
23184.2
22463.9
23280.9
22723.8
22596.5
22663.7
22567.4
22587.1
22419.1
22519.1
23210.2
22695
22528.4
23362.7
23252.4
22760.2
22342.2
22681.9
23475.1
23285.9
23379.4
23568
23187.3
22413.9
22397.5
23633.3
23533.3
22364.7
23147.4
22483.2
22663.3
22791.7
22786.9
22822.2
23575.2
22310.9
22632.5
22525.5
23424.8
23391.6
23152.3
22514.7
23152.2
22874.5
22982.6
23539.6
22447.4
23221.8
22479.8
22952.3
22545.5
23494.9
22493
22309.5
23369.8
22479.5
23410.1
22579.8
23048.1
23248.2
23048
22856.6
22853
22504
22535.6
22575.6
22475.3
22869.5
22755.2
23420.1
22659.7
23543.1
22611
23279.6
22894.8
22825.9
23018.5
22439.2
23247.6
22397.7
22611.4
22279.2
22488.3
22535.9
23441.2
23189.8
22650.9
23352.7
23070.4
22333.6
23062.7
23349.3
23486.2
22449.1
23519.4
22725.9
22434.3
22283.3
22565.3
22571.8
23243.2
22598.4
23194.2
22277.8
23518.3
23249.2
22536.4
23249.5
22780.9
23110.4
23153.4
22865.6
22407.9
22518.3
22431.5
22472.4
23498
23459.3
22820.3
23016.9
23013.7
22486.5
22414.4
23358.6
23329.4
22867.5
22906.8
22557.6
22866.8
22352.9
23238.4
22700.6
23025.4
22446.1
23282.7
23249.9
22639.7
23195.1
22707.7
23516.2
23152.2
22993.9
23366.8
22983.3
23513
22550.1
22492
23109.3
23110.9
22753.9
23074.3
22482.8
23386.9
23374.9
23469.7
22579.9
23405.5
22597.4
23117.4
22685.9
23302.3
22628.9
22606.1
23498.8
23657
22248.9
22960
22330.1
22577.5
22907.7
22414
23391.6
22699.4
23216
22321.9
23082.8
22395
22921
22488.6
22496.9
23214
22538
23420.9
22482.6
23426.2
22886.8
22558.6
22633.4
22312.4
22394.5
22669.5
22292
22414.2
22772.1
23066.9
22694.5
23520.6
23464.2
22834.5
23275.2
22268.9
22788.9
22708.5
23092.6
23109.3
22860.9
22968.1
22718.3
23357.8
22514.4
22395.9
23280.5
22286.8
23488.2
23216.9
23183.1
23310.9
22471.7
22401
22634.8
23483.1
22280.4
22538.8
23317.6
23266.2
22543.2
22498.3
22476.8
22422.2
22353.1
22598.5
22609.3
22553.1
23273.1
22461.8
23508.3
22339.6
22346
23078.4
22301.5
22791.7
22416.6
23509.7
22797.6
22305.8
22770.5
22904.8
22497.8
22321.7
22582.3
22563.9
22578.9
23324.7
22709.9
23469.2
22446.6
22364.3
22744.1
22684.8
23322.1
22999.6
22554.8
23325.6
23215.5
22734.6
22601.9
23093.6
23105.3
23108.1
23160.5
23114.2
23432.4
22475.6
22713.4
23553.5
23122.1
22954.6
22447.6
23123.6
22456.2
23135.3
22714.6
22926.1
22917.8
23309.3
23184.8
23333.8
23225.1
23108.3
22827.5
22948.1
23235.7
23234.3
22324.8
23405.3
23344.8
22540.8
23377
22567.7
22995.5
22277.3
23194
22342.2
22989.1
23357.7
22449.9
23331.2
23128.2
22442.3
22341.8
22800.8
22454.2
22605.5
22383.5
22602.6
22947.9
22291
22961.4
22784.7
23296.8
23213
23257.8
22715.5
22830.2
22984.3
23269.2
22273.4
23411.7
22869.5
23024.9
22816.7
23252.6
22564.6
22485.5
23241.3
23078.1
22383.4
23300.4
22820.3
23547.4
22359.6
22782.1
22907.6
23365.9
23448.1
22650.7
23227.8
22852.9
23415.3
23202
22394.7
22456.2
22978
22462.5
22883.4
22290.8
22790.1
22578.5
22469.6
23277.8
23314.4
23374.4
23413
22274.6
23063.3
23377.8
22507.7
22670.1
22592.3
22435.9
22393.6
22997
23007.1
22352.5
22652.9
23058.1
22319.5
22924.8
23382
23386.9
22542.9
22630.9
22354.9
23157.6
23278
22817.1
22572.5
22557.1
22688.2
23172.3
22815.7
22583.6
23229.2
22875.3
22463.2
22931.7
22904.4
22443
23259.9
22258
23404.5
22675
23067.1
22807
22748.2
23183.1
22438.9
22395.5
22413.6
22273.7
22416.6
22358.2
22853.3
23199.3
22589.4
23179.1
22858.4
22762
23153.8
22267.8
22310.1
23214.2
22740.4
22714.6
22691.7
22316.2
23081.5
23212.2
22458
23216.1
22514.4
22303.5
23348.1
23413.4
22990.4
22470.3
23416.8
22592.1
22928.4
23253.1
22569.9
22460.9
22848.3
22359.8
22360
22350.9
23253.4
22296.3
22320.6
22623.3
22690.5
22627
22282.7
22681.1
22566.7
22389.2
22967.6
22683.1
22915.7
22346.6
22676.7
22493.2
22307.5
23066
22286.4
22267.5
22819.8
22825.2
22705.6
23271.3
22254.1
23042.8
22451.9
22399.1
22582.2
22703
22398.6
22896.3
22885.3
22315.7
23055.6
22336.5
22600.6
22842.5
22569.7
22635.9
23107.1
22912.6
22341.7
22357.7
22956.8
23102.4
22402.6
23063
23210.7
23460.8
23184.6
22620.7
23367.8
23391.6
22547.5
22705.7
22624.4
22969.3
23107.4
22366.4
22864.9
22375.4
22699.6
22473.4
22389.8
22363.4
22595.8
23409.1
22904.5
22316.3
22484.5
23205.6
22971.8
22804.6
22592.3
23091.2
22290.5
22299.9
22291.8
22286.3
23150.5
22477.8
22925.6
22922.9
22902.3
22380.8
22438.3
23062.3
22324.8
22342.3
22894.7
22990.6
22746
22765.1
22267.1
22399.3
22633
22776.2
22509.2
23243.1
22596.7
23241.8
22297.2
23173.9
22394.2
23250.1
23073.4
22500.5
23181.4
22950.4
22272.3
22345.4
23034.5
23272.4
22279.6
23012.6
22446.3
22507.5
22293.1
22420.2
22587.5
23216.9
23131.8
23363.7
22999
23192
22416.9
22561.2
22372.4
23339.7
22703.6
22303.4
23387.8
22306.8
23151.8
23411.9
23282.4
22773.5
22505.5
22978.9
22547.6
22277.4
23036.8
23141
22619.4
22381.3
22566.4
22785.7
22623.5
22954.4
22568.7
22904.1
22643.3
22650.9
23342.5
22822.8
23191.3
23015.2
23436
23597.5
23119.4
22266.4
22624.6
23083.5
23319.5
23311.6
22667.2
22695.4
23083.9
22320.2
22332.6
23183.7
22938.1
22461.5
22751.5
22948.8
22654.8
22873.3
22260
22409.8
22584
22526.8
22673.4
23153.4
23032.5
22572.7
22412
23394.9
22552.5
22331.2
22966.6
22576.1
23120.6
22300.7
22714.5
22783.1
22452.4
22831.8
22431.9
22710
22608.2
22462.4
22812.8
22974.1
22661.7
22785.2
22628.1
23238
22641.6
23047.3
22789.3
22314.8
22835
22335.2
23141.4
22707.9
22452.7
22658.8
23331.1
23123.7
22685.5
22497.3
23389.3
22739.8
23470.2
22745.7
22454.3
22661.5
22279.4
23195.6
22740
23300
23094.6
22683.7
23544.5
22625.5
23245.4
23284
23138.4
22782.2
22412.3
23251.8
22900.2
22500.8
23593.2
22656.2
22272.9
23214.6
22540.4
22265
22528.1
22788.3
22527.6
22771.4
22530.4
22957.9
22883.4
23299.9
22704.8
23307.4
22661.6
22298
22663.2
23388.7
23349.2
22687.8
23289.3
22642.9
22928.2
22343.6
23081.3
22914.3
22434.9
22454.1
22471
22462.3
23208.4
22861.7
22394.6
23008.2
23069.7
23023.9
22675.3
22512.3
22849.4
22551.2
23307.3
22441.8
22735.2
22385.3
22709.4
22592.6
22250.7
22278.9
22891.1
22518.4
22626
22437
22750.4
22942.7
22498.7
23142.5
22619.9
22603.8
22552.1
22877
22341.2
22885.3
22432.4
22374.1
22547.8
22702.7
22319.9
22257.6
22591
23398.1
22586.2
23284
22402.1
22279.2
22424.6
22322.8
22738.8
22670.5
22280.8
22351.6
23635.6
22880.9
23259
22621.2
22968.3
23507.8
22559.5
23248.2
22423.6
22501.9
23044.8
23096
22648.6
22260.6
22541
22316.5
23039.9
23194.7
22532.6
22999.1
22887.4
22362.9
22622.8
23615.9
23007.8
22586
22296.3
22779.4
22961.2
22925.6
22780.8
22889
22491.6
22304.1
23033.5
22872.3
22413.2
23168
22851.1
22989.4
23026.9
22874.6
23056.7
22431.9
22555.1
23604
22479.8
22324
22664
23594.4
22655.2
22573.5
23007.9
22579.2
22653.8
22286.3
22449
22936.7
23037.4
22307.1
22255.5
33834.1
8000.07
33726.9
7999.7
30120.5
24161
33879.2
33878.2
8000.37
7999.88
24163
7999.82
33871.8
33890.2
26528.9
22407.3
28777.6
33875.5
24264.3
24357.4
33840.5
7999.48
28180.8
33830.1
33839.9
7999.7
7999.58
8000.79
24817.3
33882.7
33883.4
33883.5
30849.8
33882.4
33883.8
33883.8
32422.7
33882
33247.9
29547.4
7999.95
28967.7
7999.96
25034.5
29932.9
7999.91
33888.8
7999.94
8000.33
7999.96
27566.5
28973.7
7999.89
33863.8
7999.03
27366.7
23526.8
31037.1
33850.8
26743.2
33576.5
33884.7
23175.4
32764.4
33862.4
33877.4
33832
33891.3
26109
32260.9
33825
33821.2
33890.6
29496.1
31744.9
31570
33866.1
23506
30674.7
23376.4
30856.6
33843.1
7999.93
8000.05
33853.5
7999.23
7999.21
33855.3
7999.9
7999.92
7999.69
7999.95
27572
7999.89
22502.5
22596
22549.2
23426.4
25567.6
25016.4
24736.5
24450.7
25480.6
27115.2
25289.1
26306.2
20417.2
20640.2
20193.5
21305.1
20637.8
22625
20859.9
22405.2
19967.3
21744.4
21081.4
19516.3
19287.4
18365.1
12494.7
15966.6
14485.7
12245.2
15721.3
14237.2
10497.2
15968.9
18129.6
9747.84
9498.19
10996.8
11494.7
8747.54
10747
13243
9746.87
16699.7
23577.4
26571.5
24082.4
30923.4
28497.8
30220.6
27026.3
28070.7
27811.2
28249.1
31753.6
30691.6
32126.8
28666.9
31530.3
28334.7
32191.6
27990.9
33649.7
27555.9
31152
33719.3
33177.5
26487.7
28582.5
26397.1
27019.6
29981.7
29901.3
29084.7
29167.5
29414.4
32689.6
30613.5
33658.5
32769
29339.3
33315.9
31537.4
25758
25849
29091.8
32619.5
32263.7
26757.9
32486.1
32053.3
31827.5
33784.6
33246.6
31228.1
29746.3
31304
32557.7
33891.8
33734.8
7999.87
7999.93
33891.8
7999.87
7999.93
8500.37
33409.2
33883.6
8251.51
33568.6
33883.7
7999.94
9247.53
32921.8
7999.93
33726.8
8996.37
7999.94
33085.6
7999.95
33568.6
33726.8
7999.94
33883
10247.3
7999.95
33883.2
9997.4
7999.95
7999.96
8747.56
7999.95
32756.8
7999.96
32083
32590.4
32253.5
11496.2
11246.5
33881.1
7999.87
33881.6
8251.31
8995.77
7999.87
8500.04
8747.07
7999.97
7999.97
7999.96
7999.98
31911.1
7999.87
9246.79
33891.7
7999.97
7999.97
31562.9
31030.2
31737.7
33255.7
7999.87
9497.33
33891.7
31386.8
31209.2
33417
9996.33
10745.7
8996.41
33734.8
7999.88
11745.9
10246.1
10495.9
7999.88
33093.3
33880.6
12993.7
11995.5
8747.59
10995.4
33891.6
32929.5
11993.9
8500.04
8251.51
33417
8251.31
8251.31
8251.32
7999.89
33876.2
33879.9
12744.2
11245.1
32598
33576.5
33891.4
8500.41
8500.38
8500.39
8251.51
8251.52
8251.53
11744.3
33417
33734.7
33247.9
33409.2
33085.6
32921.8
7999.9
33877.2
12243.4
12991.9
33726.4
33726.7
33726.6
33255.7
33576.5
32430.1
8747.54
8747.55
33891.1
8747.07
8251.32
33734.1
8500.37
8500.42
8251.54
8251.56
7999.85
8747.59
32756.8
13490.5
33725.8
33726.2
33726
8251.33
33093.3
8251.33
33255.6
33568.4
8251.56
32764.4
33734.3
32590.4
32422.7
32090.3
32253.6
33725.1
33725.4
9747.87
8996.38
9247.53
9498.2
8996.39
32929.4
12493
12742.5
33085.5
32921.7
9497.35
9246.81
8995.78
8251.35
33724.6
9996.35
33890.8
8251.57
8251.57
8251.35
9746.9
33568.5
33568.6
33409
33734.4
8251.37
8251.57
30484.8
33734.6
33576.4
33576
33093.3
10497.2
9997.42
10247.3
8500.07
33576.3
8251.6
8251.6
7999.89
8500.05
33085.5
8500.05
33734.7
8500.08
7999.92
8747.08
32590.4
10246.1
33576.2
33568.2
13241.3
33567.6
8500.44
8500.44
10496
33409.1
9247.55
9498.23
33408.6
10747.1
10996.8
8500.04
8251.62
32260.9
8995.79
31911.1
9246.83
33722.3
8251.61
32764.4
8251.37
31918.3
31030.4
11246.6
8251.59
32756.8
8251.55
8500.09
8747.12
9746.92
33408.8
33408.9
8500.11
11494.7
8251.42
9497.38
8251.4
8500.46
8500.45
8251.62
8500.47
32929.4
32430.1
33568
32598
7999.97
9247.57
32083.1
33723
30668
9747.9
33416.7
8996.43
33733.2
8747.6
8747.14
8500.1
8747.13
32921.7
9246.86
32253.6
8747.62
7999.93
11744.3
8500.48
8251.62
8251.38
33416.9
8747.16
11245.1
9497.4
8747.09
8500.49
8995.81
10995.4
33247.8
33567.8
9246.86
10747.1
10497.3
9996.45
10745.7
8251.61
10496
7999.56
7999.79
32422.7
33889.8
8996.43
8251.49
31744.9
8500.13
31563.1
33085.4
33255.5
8995.86
33567.2
33724.2
9997.46
33416.8
8251.46
33247.7
31393.8
32929.4
11496.2
33575.8
33733.5
8747.63
9996.38
8995.85
10246.2
33247.6
32260.9
30850.1
8747.62
33723.6
33733.8
33887.4
31570.1
7999.96
10247.4
8747.1
8500.14
8500.49
8995.86
8747.17
11745.9
8500.2
8251.44
8747.15
8995.82
32430.1
11245.1
10496.1
32764.3
8251.2
32422.7
31737.8
8500.46
9746.95
9746.98
29737.7
30300.1
31918.3
8747.62
32090.3
8251.54
7999.72
7999.63
32590.4
31386.9
33889.4
32598
9498.25
9997.5
10497.3
9747.91
8747.24
33566.9
9746.98
33566.5
10745.8
8500.28
33407.9
9497.42
31216.2
9996.42
8996.42
9247.58
8500.16
9997.5
11246.6
10996.9
32083.1
8500.15
9746.97
10745.8
8251.36
31209.4
9247.57
10246.2
33416.5
10247.4
33888.3
11995.5
9247.55
32921.6
11245.1
8995.87
8996.44
9996.43
8995.84
30485.4
33407.6
8251.52
7999.97
12243.4
8996.4
33247.5
9246.88
8995.86
10996.9
10747.1
8500.3
8500.48
8747.19
30114.1
29926.6
8251.04
33408.2
9497.43
9498.25
33408.4
8251.49
8996.42
9247.58
12245.1
12245.1
10995.5
33247.3
31918.4
32756.7
13741.3
32261
8500.23
7999.91
10497.3
8996.32
32764.3
9246.85
11496.3
32090.3
11993.9
8747.63
8996.41
9747.93
10995.5
10247.4
33093.2
33416.4
8747.61
8251.58
9996.46
31570.3
8500.25
33720.7
8500.49
8500.37
10497.3
33732.8
33407.3
8747.61
11995.5
32929.3
30491.4
11494.7
11744.3
33731.8
8251.56
9498.22
33731.4
32430.1
8747.22
33575.6
30668.4
30300.9
29094.7
33564.5
7999.96
10995.5
7999.85
9247.41
31745
9246.86
32764.3
9995.89
8747.27
8747.33
13242.7
12494.6
31393.9
33730.6
8251.58
32597.9
33255.3
10247.4
8995.88
11245.1
8747.36
9247.53
33886.6
31738
9997.5
9747.87
8995.91
32756.7
11745.9
8500.34
33575.1
32083.2
9246.88
13492.2
9246.84
11494.7
10745.9
7999.93
9497.38
33721.5
9497.43
29553.5
33575.3
8996.37
12744.1
12993.5
7999.27
10995.2
12492.9
8996.28
33255.4
9498.16
33085.3
11744.2
33732.4
33565
33255.5
33084.9
9246.89
9747.92
32590.4
8251.55
32430.2
10995.4
9247.47
8251.58
33882.3
33085.2
10746.7
29162.4
8500.42
32422.8
9496.5
10745.8
9997.44
31911.3
33247.2
11993.8
12492.9
30306.7
11494.7
11244.2
32598
33246.8
8500.35
9498.24
11246.6
32756.7
8747.51
8995.89
12243.1
33416.2
33247
10246.2
10745.9
32090.5
12991.9
33255
14238.9
8747.33
32929.3
32598
32253.7
8747.57
9247.11
9246.89
33566.1
8747.44
31216.4
7999.88
9497.34
8995.89
13739.6
9497.24
33565.6
33255.1
11246.6
8251.56
9497.42
9246.57
31037.8
9498.1
11496.2
13489.8
33085
33084.8
9497.29
33885.6
9246.81
9746.87
8747.32
30675.1
8500.36
8500.33
10496.1
9746.78
13240.9
12243.4
33093.2
10995.5
33574.7
33254.9
8747.36
12742.4
31541.8
33416
10246.3
8251.5
9994.16
11745.8
31037.4
8995.91
32254
32090.4
31387.2
8747.3
32430.3
29743.9
33415.7
11496.2
31745.2
32590.6
33728.5
31394.1
10496.1
10747.2
33246.3
9246.79
7999.36
33246.5
10747
9498.01
13490.4
8747.07
13490.2
33874.9
10996.9
32083.5
9746.94
32261.1
33093
33405.7
8251.4
9497.87
33883.6
8251.32
32430.6
32090.8
12494.5
29355.7
33254.2
13241.1
13491.8
33730.2
33093
13241.2
10244.1
33719.7
33573.8
11744.2
9995.12
33093.1
31918.5
9746.67
12493.6
9497.73
9996.36
9996.25
8746.85
8995.91
9746.4
32921.5
9247.34
10246.3
33563.7
33574.3
11995
33406.9
13990.2
11993.6
7999.8
9745.77
33414.7
11244.9
30857
13242.3
32590.5
31033.5
33092.9
33729.1
11245.1
9497.08
31570.9
14981.4
25578
13988.5
13239.8
31216.6
8500.38
10497.2
9246.75
14731.8
32253.8
12742.6
13989.3
31563.3
29361.7
33092.9
10497
8746.02
10496.1
11244.7
11993.8
14487.3
8251.19
33868.6
8747.23
13239.8
9996.08
9496.98
12743.6
33727.5
24745.5
8499.63
8500.36
9247.23
9246.95
13740.6
30857.5
9747.79
12743.9
32756.7
9246.65
31209.7
11995.4
32427.1
13739.4
10247.3
8498.43
9746.54
31911.4
7999.52
8995.9
12490.8
9747.28
33563.1
9246.72
9997.31
10246.1
9244.63
10996.4
33406.1
14236.8
8747.1
8500.32
8746.45
12243.3
28573.9
10245
31573.5
10996.7
11494.4
31394.5
8747.36
10246
33414.8
12492.2
32422.9
30121.4
30307.3
8743.75
12993.2
31570.5
9997.11
9747.49
32052.7
14983.3
15723.5
32084.3
12245
25573
8500.25
31387.6
33406.5
33873.5
30492.7
11745.9
33245.5
32485.2
33573.5
9497
30850.6
8994.82
14979.1
11494.6
32921.5
7999.18
9746.24
10747.1
12991.8
8995.88
8499.92
9747.66
10996.8
9744.72
9496.85
11744
9246.71
11496.1
9746.24
32767.8
9497.16
10247.2
11745.6
31919
31402.6
10242.6
8745.48
10995.8
33084.7
30669
31395
33254.8
32758.9
11246.5
13739.1
30675.8
13988.2
33718.8
16457.1
9496.3
8996.19
33864.5
32261.3
33716.2
10495.7
33415.5
13238.9
32921.5
9996.03
7999.36
7998.9
8996.04
7999.75
12492.8
8995.9
33571.6
12741.7
9746.99
14485
8250.8
32083.8
28174.6
9995.67
11743.7
25398.9
9246.48
13487.3
33254.1
30491.9
15228.6
14733.7
13987.7
14979.9
14482.7
8995.7
33415.2
33084.6
31745.4
31030.8
10967.6
12742.4
32921.5
11246.3
8995.57
32929.3
8500.16
17182
30486.1
12567.1
12492.6
32590.8
9996.48
33880.8
29168.4
9225.82
31738.2
32929.3
32921.5
10640.6
32929.4
31918.7
9745.76
32764.6
29745.2
8747.18
11492.6
33084.5
21639.8
14735.5
9472.84
8995.72
33870.5
11495.8
32132
32764.4
14733
8250.68
8995.51
31919.6
12244.4
8250.29
12494.4
25385.6
13490.4
28580.1
11494
10495.9
30115
12526.9
17659.4
32598.2
25574.6
31217.7
10246.4
33092.9
9746.66
9497.27
8981.72
32922
11993.2
31563.6
29989.5
9496.69
29739.1
19511.3
33245.3
33572.3
11321.6
19417.1
16453.5
26392.2
11744
9745.26
9995.4
32929.6
7999.29
7999.01
7998.89
33093.3
7999.6
27638.5
32051.2
7999.27
8994.92
17896.1
9246.1
16211.2
16939.8
18829
15941.9
7999.08
17419.8
7999.35
32921.6
7999.58
7999.23
29175.6
11493.5
15968.1
28077.2
27817.7
27461.9
27380.2
27285.7
26840.9
26847.6
26578
26209.5
26124.8
26027.3
28504.9
28412.9
28242.4
25573.1
27984.4
25295.2
27724.3
27730.7
27292.1
24917.2
27197.3
24829.8
24731.5
26751.3
26481.3