/*--------------------------------*- C++ -*----------------------------------*\
| =========                 |                                                 |
| \\      /  F ield         | OpenFOAM: The Open Source CFD Toolbox           |
|  \\    /   O peration     | Version:  dev                                   |
|   \\  /    A nd           | Web:      www.OpenFOAM.org                      |
|    \\/     M anipulation  |                                                 |
\*---------------------------------------------------------------------------*/
FoamFile
{
    version     2.0;
    format      ascii;
    class       surfaceScalarField;
    location    "0.260000";
    object      phi;
}
// * * * * * * * * * * * * * * * * * * * * * * * * * * * * * * * * * * * * * //

dimensions      [0 3 -1 0 0 0 0];

internalField   nonuniform List<scalar> 
173815
(
-0.0354653
0.035684
-0.000345199
0.000126811
0.0352586
-0.0353357
-0.000100197
0.000177533
0.0357417
-0.0359227
-9.8957e-06
0.000191176
0.0155966
-0.0151743
0.000507781
-0.00093004
-0.0248581
0.0248477
-0.000576921
0.000587534
-0.000200002
-0.0154397
0.0155465
9.32195e-05
-0.000116862
3.66467e-05
-0.0117914
0.0118716
0.0092773
-0.00921644
8.38607e-05
-0.000144708
0.0109457
-0.0107528
-0.000112215
-8.0724e-05
-4.75217e-05
-0.0147495
0.0148288
-3.17584e-05
0.00890313
-0.00881493
3.77917e-05
-0.000125973
-7.91991e-05
0.00985148
-0.00965414
-0.000118124
0.0146558
-0.0145666
-5.48622e-05
-3.42401e-05
-0.0144155
0.0134769
0.000963269
-2.46058e-05
0.000106473
0.00822301
-0.0081728
-0.000156673
-5.72726e-05
-0.0141707
0.0142659
-3.78997e-05
0.0106124
-0.0104596
-5.61607e-05
-9.66179e-05
-5.06613e-05
-0.0134779
0.013571
-4.24769e-05
-0.0153248
0.0154496
-9.82289e-05
-2.65461e-05
-0.0149853
0.0150532
-3.88016e-05
-2.90339e-05
-0.0152811
-1.65949e-05
-2.69982e-05
-6.46954e-05
0.0130929
-0.0129808
-4.7398e-05
-0.0138797
0.013976
-5.66918e-05
-3.96515e-05
0.0108091
-0.010784
6.51932e-05
-9.03352e-05
-0.00727114
-0.000352082
0.00778944
-0.000166211
-0.00106926
-0.00603682
-0.000165043
1.82864e-06
0.0113598
-0.0112863
-7.53477e-05
-0.00033586
0.00868175
-0.00817937
-0.000166502
9.35087e-05
-0.0127885
0.0130165
-0.000321507
4.11849e-05
-0.000107989
0.0150277
-0.0149609
-0.0142402
0.0143494
-0.000166388
-0.0149142
-2.99325e-05
-0.000157684
-0.0135531
0.0136602
-4.4672e-05
0.0132901
-0.0132001
-4.51981e-05
7.65237e-07
-6.76638e-05
-0.0122058
0.0122727
-0.000116191
-0.0148159
0.0148846
-0.0151246
0.0151834
-3.06402e-05
-2.80589e-05
-4.25089e-05
-2.88139e-05
0.0126212
-0.0123591
-0.000210989
-5.10694e-05
0.0269686
-0.028323
-0.0010576
0.00241211
0.0121116
-0.012194
0.000139322
-5.68805e-05
0.0122289
-0.0122163
4.7352e-05
-5.99904e-05
0.0131778
-0.000190744
-0.0130518
-6.09197e-05
-3.27331e-05
-0.0156018
0.000262552
-0.000395229
0.0157345
0.0119962
-0.0118956
-3.47039e-05
-6.5914e-05
0.000358328
-0.0134303
0.0136215
-0.000549501
0.000275146
-4.38097e-05
-0.0153672
0.015136
0.015128
-0.000185636
-0.0150503
-0.0152393
-1.44627e-05
-2.73012e-05
5.5687e-05
0.0145373
-0.000145755
-0.0144472
-0.00137497
-0.0106408
0.0120869
-7.11593e-05
-0.0155873
-0.00032956
0.0157169
0.00101928
0.00267946
0.02327
-0.0144648
-6.65462e-05
-3.52643e-05
-0.0143723
-3.67054e-05
0.011503
-1.31328e-05
-0.0114177
-7.21048e-05
-0.014909
-0.000187522
0.0149804
-0.000172697
-0.0153787
0.000111749
-0.000776824
0.00077463
0.0181389
-0.0181367
0.000550962
-0.000615592
0.0165286
-0.0164639
0.000907853
-0.000894545
0.0236695
-0.0236826
0.0230826
0.000946106
-0.0231207
-0.000625749
0.00054375
0.0133276
-0.0132456
0.000951983
-0.000882163
0.0294114
-0.029481
0.000313177
0.0332582
-0.000282277
-0.0332889
-0.000974005
0.020957
0.000993302
-0.0209762
-0.000534381
0.014419
-0.0142625
0.000377905
-0.000917707
0.000925365
-0.0248657
0.0342411
0.000448525
-0.000203412
-0.034486
-0.00136194
0.00138927
-0.0243936
0.0243664
-0.00113917
0.00118079
-0.0211236
0.0210821
0.000206053
0.0150468
-0.000271497
-0.0149813
-0.0353852
0.0355207
-0.000302698
0.00016746
0.0352903
-0.0353383
-9.73929e-05
0.000145654
-0.0356079
0.0355689
-0.000120849
0.000160106
-0.0352685
-0.000286359
0.000169938
0.0287118
0.00101003
-0.0287697
-0.00138318
0.00140503
-0.0275168
0.0274951
-0.014354
0.0145168
-0.000697153
-0.035563
0.0354637
-8.46833e-05
0.000184331
-0.000255225
-0.0353413
0.00013148
0.0352629
-0.000116255
0.000143933
0.0147265
-0.0146382
-0.000143073
-0.00011341
0.0151024
-0.000428436
0.0140708
-0.0141698
0.000527464
-0.00137729
-0.0295262
0.00132619
0.0295775
-0.015512
0.000240796
-0.000330556
0.0360793
-0.0359749
-0.000224255
0.000120225
-0.0356457
-0.00010477
0.000187708
-0.0156766
0.000300829
0.015651
-0.000290894
0.000240619
-0.0154616
-0.013772
-6.69994e-05
-4.06298e-05
5.2078e-05
0.0138492
-0.0137579
-0.000143296
-0.0136788
-4.11159e-05
-0.0140822
-5.02895e-05
-3.81989e-05
-0.0357254
0.035982
-0.000453958
0.0001976
-0.018737
-0.000981612
0.00104466
0.018674
0.0107189
-0.0107899
0.000157436
-8.63626e-05
-0.00101775
0.000793483
-0.031587
0.0318115
-0.0349325
0.000275726
0.0350237
-0.000366691
0.0151218
0.000135213
-0.0154414
0.000184451
-0.000208555
-0.0151411
0.0170449
-0.00169523
0.000150276
-0.0148532
0.0358597
0.000101543
0.000118287
0.0323531
0.000448529
-0.0324883
0.000253536
-0.0139183
0.0140477
-0.0003829
-0.0133926
-4.17861e-05
-4.34391e-05
0.000398648
-0.014112
0.0141574
-0.000444054
-2.79127e-05
-2.79961e-05
0.00120631
-0.000354148
-0.00916493
0.00831278
-5.48339e-05
-3.05064e-05
-0.000169585
0.0139518
-0.0255052
0.0283574
0.000887726
-0.00373973
0.000260521
-0.000341865
-0.0152161
0.0152975
-3.41497e-06
-2.915e-05
0.0111456
-0.011113
-0.0354036
-0.000522013
0.000200573
0.00980865
-0.00940397
-0.000301386
-0.000103278
-0.00101757
0.000424097
0.0364256
-0.0358318
-0.0154974
-0.000638642
0.0162792
0.00187238
-0.0175129
-0.000182794
0.000147303
-0.0153431
0.00984106
0.000188174
-0.00991631
-0.00011291
-0.0346963
-0.00044659
0.000210677
-0.000712993
0.00079589
-0.0170354
0.0169526
-0.0115536
0.000908152
-0.00134223
0.0119877
-6.92985e-05
-3.70811e-05
-0.000458679
0.0338734
-0.0340419
0.000627462
-0.0132799
0.0133709
-0.000135682
-0.0154393
-0.0109941
0.0110501
-0.000172848
0.00928168
-0.0093922
0.000244792
-0.000134257
-9.8642e-06
-0.012666
0.0127694
0.000510292
0.0161097
-0.016069
0.0113665
-0.0113521
-1.25362e-05
0.000387328
-0.000400605
0.0158038
-0.0157905
-6.69277e-05
-3.9146e-05
-6.56416e-05
-4.20372e-05
0.0154163
0.000346351
-0.0153287
-0.000433883
-0.000167399
-0.000153193
0.0151678
0.00035131
0.0150598
-0.015007
-0.000403989
-5.84724e-05
-4.40379e-05
-0.00115361
0.0131607
-0.0130587
0.00105163
0.00110345
0.0344786
-0.033682
-0.00189979
0.000143124
0.0143644
-0.0142732
-0.00023429
-6.12085e-05
-4.60172e-05
0.000268882
-0.00034465
-0.0123796
0.0124554
0.0141474
-0.000150428
-0.0140638
-0.0151853
-0.000239617
0.0152393
-0.0169503
0.000368122
-0.000492121
0.0170744
-0.000346169
0.0154741
-0.0154188
-0.0309884
-0.000199593
2.42009e-06
0.0311858
-0.0128306
-0.000101726
-4.84128e-05
-0.000182377
0.000316098
-0.0151499
0.0150162
0.024368
-0.0243421
0.000129867
-0.000155667
0.0146537
-0.0145674
-0.000232066
-0.0195787
-0.0007108
0.000656901
0.0196327
0.000361007
0.0108852
-0.0107694
-0.000476861
-0.000575336
-0.0156514
0.0158316
0.0152669
-2.57539e-05
0.00890021
-0.000180466
-0.00856761
-0.00015212
-0.000159422
-4.99224e-05
0.000614655
-0.00102199
0.0165118
-0.0161044
4.54085e-07
-0.000130515
-0.000795964
0.0301143
-0.0302003
-0.000638087
0.0307858
-0.0309435
-0.00019333
0.030489
-0.0303934
9.7925e-05
-0.000316075
-0.0308655
-0.0346092
-0.000255397
0.000168595
-0.00101612
0.000970608
0.0267907
-0.0267451
-0.00100551
0.0273951
-0.0274055
0.000980275
0.0149406
-0.000552005
-0.0153688
0.030492
-0.00169718
-0.00217859
-0.0266161
0.0121459
-0.0120553
-5.38918e-05
0.000958108
0.0261151
-0.0261024
0.0255201
-0.0254795
-0.000160601
-5.26004e-05
0.000111754
-5.5483e-05
0.012092
-3.12359e-05
-6.45004e-05
9.35255e-05
-5.85208e-05
0.0151199
0.0304801
-0.000190473
0.0121558
-6.29804e-05
1.06416e-06
-6.15371e-05
0.0154736
0.000254352
-0.0154601
-0.000267832
-0.0248441
0.0248946
-0.000238662
0.000188271
-6.50526e-05
0.0113834
-0.0113217
0.0333772
0.000837581
-0.0286602
-0.00555444
-0.000391517
0.015466
-0.000111435
0.0345982
-0.0349451
0.0116266
-5.2997e-05
-7.06268e-05
0.0147449
-0.000258497
0.0352367
-0.0351699
-0.000321781
0.000731675
0.0320379
-0.000416178
-0.000252138
0.000165272
0.0151536
-9.36933e-05
-0.0354627
-2.38039e-05
0.000148545
-4.75553e-05
0.000154043
-0.000508376
0.000877749
-0.0358056
0.0354365
0.000351183
5.83325e-05
-0.0152776
0.0148681
-0.0151412
-0.000131074
-0.000182408
0.000172818
0.0117628
-6.71573e-05
-6.89784e-05
-6.52266e-05
-6.75233e-05
-5.22807e-05
0.000180568
-0.0353034
-0.000175435
0.000137903
-0.000181538
0.000141283
0.000977767
-0.000937745
0.0219848
-0.0220247
0.021495
-0.0214911
-0.0354568
-0.000567098
0.0359163
0.000107832
-0.0355244
-4.49049e-05
0.000112811
-0.0148523
0.000330902
0.0149689
-0.00044742
-0.000753533
0.000486721
-0.0143646
0.0146315
-0.000547574
0.000659163
0.0303688
0.0350284
-0.0352397
-0.000412588
0.000121913
-0.0113627
-9.90294e-05
0.0114487
-0.00024393
0.00998819
-0.00982344
-9.45666e-05
0.000190908
-0.0154133
0.000214669
0.0316124
-0.00143623
-3.49889e-05
4.16361e-05
0.00981411
-0.00982074
-0.0387837
0.0338687
0.00529191
-0.000376605
-0.0122701
0.0126595
-0.000600379
0.000640139
-0.0156277
-0.000759409
0.015747
0.0222232
-0.0222544
0.000723923
-0.000692675
0.0111458
-0.000121182
-7.88659e-05
0.0354987
-0.000606876
0.035329
0.000277304
-0.0357989
0.000192932
-0.000133461
0.00019306
0.000504777
0.0155344
-0.015399
-0.0152831
-0.000953799
0.0159751
-0.000200876
-0.000932135
0.000858189
-0.0195047
-0.000954271
0.0200061
-0.0199839
-0.0362755
0.0357576
-0.000806916
0.0114403
0.000439359
-0.0110727
0.016307
-0.00150953
-0.015436
-0.000204661
7.08979e-05
0.0175657
-0.0174318
0.0106758
0.000127625
-8.44703e-05
-0.000831414
0.0186364
-0.0185817
0.0190661
-0.0190393
-0.0156523
0.00167559
0.0332041
0.000786058
0.000218381
0.000117243
-0.000548292
-0.0177452
0.0189774
-0.000683789
0.00862545
0.000242098
-0.0087048
-0.000162734
0.0107269
-2.00558e-05
-9.4424e-05
1.59331e-05
-7.37861e-05
0.0141551
-0.0140687
0.000168638
-0.000255004
0.0102109
-0.000301147
-0.00010108
0.00039957
-0.0152235
-0.0144192
0.0142762
-0.000399739
0.000542786
-6.33175e-05
-7.71433e-05
-0.000266251
-0.000452729
0.0286517
0.000513048
3.97112e-05
-0.0123268
0.0123345
-0.000346773
0.0166278
-0.0167298
0.000448875
-0.000273445
0.000199089
-0.000167085
-0.000901626
0.011881
-0.0117862
-0.015292
-7.56437e-06
0.00959679
0.0003547
-0.000110413
-0.000251365
0.0156268
-0.000526206
0.000262117
-0.000250109
-0.00040086
0.000120768
-0.0136827
0.0139628
0.00276263
-0.00217484
0.0182712
-0.018859
0.000699877
-0.000733051
0.0173158
-0.0172825
-0.016866
-0.0136647
0.0137589
-0.000251812
-0.00980131
0.00963267
0.0153524
-0.0153376
0.00928899
-0.000262462
-0.000123378
-0.0156226
0.00030031
-0.000272186
0.0155946
-0.0138698
0.0135475
-0.000831236
-0.00621371
-0.0251609
0.0093277
0.022047
0.00904026
0.000372991
-0.00013155
5.4797e-06
-8.24767e-05
0.0308783
0.000338868
-0.0305896
-0.000627331
0.000319524
0.0348999
-0.0349418
0.0293538
-0.000394981
-0.0177099
0.00103277
0.017014
-0.000336808
0.00934154
7.79371e-05
-0.000142164
0.0124321
-0.012362
-0.000137711
-0.000158102
0.0115371
-0.0114441
0.0144635
-0.000265369
-0.000163225
-0.000930435
-0.0129199
0.00279607
0.0110543
-0.0162211
0.000630182
-0.00055496
0.016146
0.0271479
-0.0272355
-0.00014159
0.000229333
-0.00109709
0.00109284
0.0158916
-0.0158873
0.0268631
-0.000954656
-0.0268875
0.000979179
0.00911112
-6.1197e-05
-0.000149696
-0.000245998
-0.0163218
-0.0148985
-0.000334113
0.000107596
-8.83692e-05
-0.0131803
-0.000848611
0.0136281
0.016545
-0.00138592
-0.0288513
0.0288601
-0.0206103
-0.00110894
0.0205802
-0.00119664
0.0310574
-0.00136534
0.0268455
-9.01022e-05
-0.0147518
0.0146596
3.53582e-05
-9.2371e-05
-0.000298589
0.000351811
0.0145326
-0.0145858
-0.000800975
0.000845706
-0.0206549
-0.00014994
-9.87854e-05
-0.000379356
0.0319944
0.000222393
-0.0100543
0.0100201
0.000389796
0.0132927
-0.0132311
-0.000451376
-0.0131729
0.0132762
-0.000294005
-0.0151585
-0.000811456
0.000571031
-0.000705911
0.000736017
0.020927
-0.00136744
-0.014249
0.014863
-0.000876965
0.0137157
0.0042062
-0.000268509
-0.0187546
0.0186158
-0.000141147
0.000279988
-0.000568779
0.000615611
0.0341945
3.4568e-05
0.00989314
-0.00996268
-0.000129762
-0.0134651
-0.0142773
0.0143356
0.03119
-0.0267152
-0.0136409
0.00916634
-4.51673e-05
-0.0152613
-0.0139522
-0.000286078
0.00933936
0.000365482
-0.000108028
-3.74446e-05
0.000132955
-0.0347045
4.09339e-05
-0.000105529
0.00840765
0.000378678
-0.000160864
0.0350617
-0.000215466
0.0296014
-0.0299074
-0.000241291
0.0333266
-0.0332993
0.00042153
-0.000270949
5.06619e-05
-0.000115471
0.0343054
-0.0341053
-0.000455279
-0.000222128
-0.0135723
-0.000163357
-0.000244419
-0.000120718
0.00179518
-0.00136556
-0.0339386
0.0335092
-0.000327122
0.000246693
0.0339541
0.0158711
-0.000134259
-0.0159828
-0.035616
0.0003243
0.0243997
-0.024397
-0.000532514
0.000529899
-0.0181373
-1.95921e-05
0.0207217
-0.00256473
-9.76476e-05
0.0133613
0.000372963
-0.0136366
0.00234947
-0.0349667
-0.00142443
0.00018413
-0.0365928
0.0242563
3.58368e-05
7.60384e-05
-0.000128807
-0.0337277
0.0341017
0.000504072
-0.000731075
-0.0187443
0.00073843
-0.000249672
0.0114523
-0.0113607
0.0104796
-0.0106957
0.000343725
-0.0121581
0.000149608
0.0122774
0.000227165
0.0279186
-0.0279566
-0.000188939
-0.000562072
0.000606731
0.023038
0.0361875
-0.00110104
0.00121574
-0.0146546
0.0341463
-0.0341088
0.035807
-0.00014371
0.00938011
0.000101
-0.000139556
-0.0145042
0.0146047
-0.000365842
0.000124827
-0.000136899
-0.0147995
-0.000357463
7.44285e-06
0.00961394
-0.0105518
0.0109427
-0.0109066
-0.000369822
0.0150109
-0.0149396
-0.000450209
0.0153915
-0.0153111
0.0130394
0.000397026
-0.000606586
-0.0128298
-0.0148473
0.0141409
-0.000666573
0.00137302
-0.00875484
0.00909661
-0.000522222
-0.0353599
-0.00588436
0.040227
0.0135661
-0.0134436
0.000235876
-0.0005064
-0.0136775
0.0139727
0.000211282
0.000201186
-2.55644e-05
4.19116e-05
-0.000147215
0.0107626
-0.0106084
-0.000210295
-0.000932918
-0.0182742
0.0182255
0.000233209
-0.000138976
-0.016824
0.0349626
0.000266316
0.010213
-0.0103231
-0.000156229
0.00225554
0.0311026
-0.00132
0.0193939
-0.0179719
-0.000778618
-0.00064332
0.0157414
-0.0156813
0.0124911
5.29892e-05
-0.000111973
0.0177488
-0.0177072
0.000506001
0.0140856
-0.0142398
0.0205166
-0.0204774
0.000335968
2.76738e-05
-0.0133589
0.0129953
4.27367e-05
-0.0317485
0.0278541
0.00385187
0.0225759
-0.0225674
0.0243032
-0.0242722
0.0280911
-0.0280865
-0.0298824
0.0302881
0.00120991
-0.00161549
0.0315188
-0.0317082
-0.0191601
-0.00187809
0.00288094
0.0181573
-0.00462875
0.00344349
-0.0325422
-0.000306313
4.2043e-06
0.00943757
-0.00935789
-0.00139597
-0.0261773
0.0262081
-0.0157107
0.000157619
0.000111717
0.0143069
0.00157007
0.017429
-0.0162364
-0.00111527
-0.0200803
0.0200867
0.0125209
-0.00107233
-0.0196481
0.0196052
-0.00137586
-0.0255986
0.0255786
0.00135249
-0.00130096
-0.0232641
0.0232127
0.00127383
-0.022184
-0.00120814
0.0221184
-0.000854766
-0.0178724
0.0177943
-0.000622024
0.0333801
-0.000440188
0.0157564
-0.017208
0.0170945
0.000346815
-0.0237914
0.023782
0.00099217
-0.000993299
-0.0237901
-0.0153262
0.0153743
-0.0226841
0.0226571
-0.000256284
-0.0128972
0.0293442
-0.0292435
-0.000297563
0.000197092
-0.0125153
0.0141747
0.000993989
-0.0026534
-0.0120447
0.000365143
0.0105544
-6.92988e-05
-0.0173104
-9.79493e-05
0.000200442
-0.0159274
0.0159594
-0.000432533
0.0298158
0.000242356
-9.54882e-05
-0.0299625
0.00777412
-0.00772044
5.28026e-05
0.00069439
-0.000602737
0.0127891
-0.0128807
-0.0155056
0.0153815
7.00131e-05
-0.0152844
-0.0076867
0.00960489
-0.000168886
-0.00174929
-0.0174193
4.71828e-05
6.17333e-05
-0.000210917
0.0275166
-0.00045134
-0.0274973
0.000432287
-0.00086701
0.0160492
-0.00030514
0.000308873
-0.0349826
0.0350314
0.000249614
-0.0139118
0.0135645
0.00131029
-0.00157668
0.0165146
-0.0162481
-0.000190155
-0.000154433
-0.00878771
0.000247846
0.00878198
0.00187445
-0.00288806
0.0151921
-0.0141784
0.00231338
0.0331465
-0.0329377
0.0330714
-0.000460533
-3.83806e-05
-0.0164224
0.000946425
-0.000907098
7.0356e-06
-0.000163755
0.0299728
-0.000229878
-0.011832
0.0119966
-0.0020434
-0.0283428
-0.000132254
-0.0272983
0.0273857
4.50049e-05
0.000780529
0.00877796
-0.00989434
-0.0326893
0.000393723
-0.000158858
-0.0150116
0.000606835
-0.0007537
-0.00886742
0.00998242
-0.00141637
0.000402993
-0.00792055
-0.000169138
-0.000876488
-0.02945
0.000800523
-0.0153463
-0.0174269
0.0173681
-0.00057092
0.000568635
0.0181413
1.97247e-05
-0.000387454
-0.0110526
0.000245059
0.0111951
-0.015924
0.000601951
-0.000580515
0.0159027
-0.0352526
0.0355833
-0.000633158
0.0160993
-0.000659274
-0.0346058
0.0349873
-0.0351218
-0.000806928
-0.0153675
0.0160061
0.000168354
-0.000476915
0.0350399
0.0145908
-0.0145032
-0.000638545
0.000550939
-0.0328884
0.0327225
-0.000843219
0.00100946
0.000176389
-0.0104944
0.0105493
-0.000231244
-0.00945097
0.00952994
2.20459e-05
0.000633249
0.00047158
-0.0154761
0.0143713
-0.0359203
0.000219913
0.0152191
-9.60793e-05
0.000507965
-0.000179021
-0.012696
0.0113409
-0.000539223
0.00189434
0.000198974
-0.000277135
0.0115185
-0.0324187
0.0325904
-7.83778e-05
-0.0137457
0.0156596
-0.00183552
-0.0191605
0.0191329
-0.0121116
-0.000125403
-0.000217795
-0.0301811
0.0303109
0.000353773
-0.0143375
0.0142334
0.000495069
0.0189233
-0.0215931
0.0366617
-0.000698156
0.0270852
-0.000292708
0.000355617
-0.00106921
0.0160413
-0.015779
-0.000429058
-0.0119589
-0.0281469
0.0281662
0.0124011
-0.0126083
0.0276785
-0.00179135
-0.0305913
0.00470435
0.0165498
-0.0160696
0.000134591
-0.0216209
0.0215937
-0.0249498
0.0249633
-0.00422625
0.0345827
0.00118586
-0.0315421
-0.00106143
0.0165153
-0.0164758
-0.0108864
0.000348223
-0.0138176
0.000754882
0.014328
-0.00126521
-0.015334
-2.67595e-05
-0.000973525
-0.0287541
-6.42393e-05
2.29646e-05
-0.0167239
0.0167652
0.0138419
-0.000246344
-0.0200961
-0.000785033
-0.000972476
-0.0261593
0.0144035
-0.000375336
-0.0142967
-0.000762679
0.015895
-0.000139134
0.0286279
0.000163107
-0.015601
-0.000284921
-0.0156665
-0.0136695
0.0137554
-0.000308023
0.000614777
-0.0175337
0.000334931
-0.0145246
0.0146333
-0.000443618
0.0311855
-0.0304047
0.000177799
-0.00095844
0.00080336
-0.00510808
-0.000569581
0.019696
-0.0197998
-0.000126683
0.000230619
-0.0172243
0.0169961
-0.00013435
0.000362592
0.000830338
0.0236369
-0.0229933
-0.00147387
0.0360313
0.000732243
-0.000366816
0.0147006
0.0103386
-0.0102579
0.000141743
-0.000496366
-0.0153763
0.000669706
0.015203
-0.0158412
-0.000446435
0.00068667
-0.0161421
0.000121009
-0.000637501
-0.0126445
-0.000297579
0.0125974
-0.00108111
0.0163162
-0.0163043
-0.000925388
-0.0298466
0.000889852
-0.0354912
0.0428572
-0.00829407
0.000928348
0.00996638
-0.010099
0.000140054
0.0233626
0.000646236
-0.0231784
-0.0192137
0.000337246
-0.000422756
0.0192993
-0.0191026
0.000470189
-0.000581146
0.0152874
-0.000642477
-0.0183627
-0.000510524
-0.0114905
0.0116136
0.0242338
-8.34128e-05
0.00010603
0.000217166
0.0135363
0.00119226
-0.0149457
0.0134378
0.00246354
-0.0146856
0.000936909
-0.00232612
0.0187722
-0.000389144
0.000413621
-0.0187966
0.00019242
-0.000163897
0.0111171
0.0116391
-0.0118777
0.000369684
-0.000131008
-0.000313235
0.0101863
-0.010117
0.000649941
-0.000671227
-0.0268661
-0.0140139
-0.000365338
0.0143009
-5.91036e-05
0.00971237
-0.0109084
0.00125512
-6.24014e-05
0.00053168
0.0104045
-0.000597566
0.0274757
0.000691013
0.000141612
-0.000164653
0.000297991
5.03249e-05
0.012522
-0.0119181
-0.000654212
0.0305301
0.000208563
4.73824e-05
-0.0152331
-0.000902263
0.0148811
0.00061202
0.00156059
0.0229748
-0.0192096
-0.00532571
0.0291717
4.31494e-05
0.00113376
0.0143406
-0.0142052
-0.0012691
0.017601
-0.000491048
-0.0171741
-0.00258572
0.00118961
0.0131987
-0.0118025
-0.00111592
0.0166717
-0.0166368
0.000321149
-0.000531578
-0.0138274
0.0140378
-0.0153929
0.00127049
0.000304834
0.0121929
-0.000549743
-0.00917956
0.0243591
-0.00029941
0.000174258
-1.53871e-05
0.000590842
0.0196306
-0.000584392
-0.019637
0.000938205
-0.000268813
-0.0116303
-0.000559082
0.000834921
-0.0211128
-0.000158971
-0.000480864
-0.000646643
0.0161749
-0.0165896
-0.0175552
0.000255499
-0.000119479
2.05586e-05
-0.0169425
0.000575822
-0.000739355
-0.0125268
0.0126904
-0.000610683
0.0158375
0.000705554
-0.0159323
-0.0102921
0.000906341
-0.00216775
-0.00136989
0.000954455
0.0145664
-0.0141509
-0.000617819
0.000551356
0.0261817
0.0231962
-0.0231707
0.000239506
-0.000264823
-0.000152601
-0.00789018
-0.000759098
0.00905228
-0.00163094
0.0279474
0.00478632
-0.0244135
0.00101223
0.00017151
-0.0341435
-0.000168483
0.00159401
-0.00126561
-0.0169557
0.0182797
-5.82669e-05
0.0135957
-0.0143299
-0.000689414
-0.0255912
-0.000979723
-0.0207392
0.0207211
0.000373123
-0.000354945
0.0236922
-0.000584707
0.00058275
-0.000650835
0.0149292
-0.0148611
0.000617016
0.0137798
-0.0138908
-0.0317759
-0.0179
-0.00125104
0.016999
-0.0168638
0.00014835
-0.0165501
-0.000476569
-0.0155785
0.0155587
-0.000528888
0.000556889
0.00058956
-0.0177804
-0.000364318
-0.000962594
-0.0232947
0.000106383
-0.0132771
-0.000574923
-0.0149137
-0.00139692
0.0149408
-0.00070463
0.00101372
0.0159754
-0.0162845
0.000337617
-0.0295514
-0.00119064
-0.00017357
0.0161387
-0.00023986
-0.0157252
-0.000569793
0.0267429
0.000703792
-0.025604
-0.000690889
-0.0166812
-0.000168133
-0.000235023
0.0170844
-0.000100806
0.0108433
-0.000249738
-0.0134751
-0.000472844
-0.0118011
0.0123243
-0.000539536
0.000609408
0.0142217
-0.0142915
-0.00141162
0.0222571
0.000249313
-0.0210947
0.000891755
-0.000964816
0.0154035
-0.0153304
-0.00904536
0.00910824
-0.000588744
0.000525875
-0.000557732
0.0198247
-0.00166593
-0.017431
-0.000771978
0.017712
0.000410074
0.008826
-0.00206461
-0.00717145
-0.0122625
0.000357119
-0.00128413
0.000840427
0.0258163
-0.0253725
0.0126453
-0.00110031
-0.0125692
0.0010243
-0.00347064
0.0140194
-0.0131344
-0.000608422
0.000412071
-0.0140661
-0.0114812
-0.00057992
0.0115883
-0.00150199
0.0172486
-0.0169975
-0.0290172
0.0288127
-0.000557833
0.000762458
-0.0131917
0.0161983
-0.00390886
0.00187988
-0.00195233
-0.0332266
0.000385154
0.023686
-0.000378856
0.026864
-0.026846
0.000308269
-0.000326056
0.000273861
-0.000282982
0.0124103
0.0274331
-0.000607663
-0.0150957
0.000843197
-0.00120302
0.0154556
0.000607804
0.0312374
-0.0155798
0.000790352
0.0151407
-0.000215631
0.000600477
0.0301455
0.0176645
0.000750714
-0.000114735
-0.0183004
0.000204759
0.0284959
-7.2605e-05
0.0254931
-0.0253612
0.000116685
-0.000248494
-0.000425175
0.000242363
0.0300077
-0.0298247
0.0118417
0.000480406
-0.011812
-0.000510077
0.0357556
-0.000703424
0.012124
-0.011931
-0.000353114
0.010315
-0.0103619
0.0209328
-0.0208349
9.69336e-05
-0.00019467
-0.000530811
-0.0353266
0.00018129
0.000603663
-0.0201089
0.0255458
-0.025502
7.4077e-05
-0.000117758
0.0255787
0.000215005
-0.000247706
-0.0134154
-0.00117915
0.00147213
0.0131224
-0.000389388
0.0157612
-0.0160764
-0.0176072
0.000420415
9.46068e-05
0.00034685
-0.000427202
-0.0137876
0.013868
-0.0261266
0.0140079
-0.0135864
0.000580987
-0.00100252
-0.00196815
-0.0170696
0.0175358
0.0350693
-0.00151394
-0.0208235
0.0205946
0.00174296
-0.0138177
-0.0137653
0.0139423
-0.000683402
-0.0011161
0.009007
-0.000477124
-0.0159747
-0.0298615
-0.00061736
0.0290448
0.00143431
0.00964633
-0.00960047
-0.000802377
-1.75031e-05
8.77527e-06
-0.000496807
0.0135525
0.0007749
-0.0138306
-0.0162733
0.0159069
0.000165543
0.01354
-0.0138176
-2.88601e-05
0.000306494
-0.000199004
0.00371495
0.000215589
-0.000337242
0.0115053
0.000351706
-0.0115197
-0.000868892
0.000550091
-0.0134464
0.0157804
-0.000318587
-0.0268626
0.0269332
-0.000616818
0.000546398
0.0112164
-0.0108982
0.000587889
0.0129576
-0.000416771
-0.0131287
-0.0141493
0.0142213
-0.00057656
0.000504629
0.00195302
-0.0159679
-0.0301693
-0.00739464
0.00717377
0.0297193
-0.0294982
-0.000620463
0.018686
0.0257663
-0.000725175
0.00098992
-0.0260309
0.0141277
-0.01445
-0.000480202
-0.0147389
-0.0135863
-0.000425515
0.000648286
0.012506
0.000581058
-0.00260292
-0.0104841
0.000714216
-0.000727866
-0.0290657
-0.000152282
-2.53916e-05
-0.000571782
-0.0222118
0.00052928
0.000648538
-0.00944047
-0.0147907
0.0167507
-0.000228962
-0.00173099
-0.000202995
-0.0125749
0.00858103
-0.00739042
-0.0088029
-2.35698e-05
0.000132937
0.00964189
-0.000167968
-0.00960685
0.0196687
-0.000202834
0.000230178
0.000768178
0.0130028
-0.0125813
-0.000261867
0.0133749
0.000359509
0.00070196
-0.0116029
0.0115225
-0.000621563
-0.000800918
-0.0253462
0.0248631
-0.0299281
0.0297558
0.000147327
0.000220544
0.0141112
-0.0144791
0.0141737
-4.4212e-05
0.0108708
-0.00917288
-0.00165371
0.0356347
2.82109e-07
0.000333894
0.0148518
-0.0151273
-0.0308079
0.0325561
-0.010042
-0.000291066
0.015491
0.000260818
0.000341151
-0.0138849
0.0138797
-0.00317166
0.00246842
-0.0142104
0.000187342
-0.000404928
0.0104306
0.0112436
-0.0111662
0.0030897
0.0213041
-0.000668127
0.000296889
-0.0137297
0.0139946
-0.0110622
2.79292e-05
-7.87114e-05
-0.000453281
0.000473538
0.0132425
-0.000179627
-0.0206839
0.000632703
-0.0320594
-0.0129704
0.000415187
0.0132478
-0.000692566
0.000588691
6.45504e-05
-0.0225474
-0.000419874
0.000447537
0.0225198
-0.0121935
0.00156464
0.0107791
-0.0107345
-0.000294255
0.015652
-0.0160725
0.000101981
-0.0149155
-0.0151598
0.000308962
0.0149983
0.000159338
-0.0170545
-0.00117086
0.000215276
0.0247502
0.00788932
-0.00857978
0.000338396
-0.0198036
-0.000111071
0.000114985
-0.0281821
-0.0267068
0.000854058
0.0260682
-0.0207811
0.000318871
-0.000276883
0.0277265
-0.00227836
-0.0262653
0.000817306
0.000700874
-0.000793569
-0.0142964
0.0143891
0.000352531
-0.0133361
-0.000446723
-0.00277684
-0.016659
0.00236374
0.0170722
-0.0177773
-0.000439511
0.017759
0.00045784
0.0135605
-0.0135692
0.0254946
-0.0227001
-0.0184147
-0.00047679
-0.0207909
0.000261882
-0.000251939
0.00034126
-0.0218989
0.0219256
-0.000367841
-0.0109626
-0.000200389
-0.000228498
0.00137321
-0.0133529
0.0126828
-0.0006486
0.000573513
-0.0126077
-0.000909769
0.0013997
0.000112974
0.0247921
-1.03951e-05
0.0188091
-0.0187193
0.000247462
-0.000169304
-0.021693
0.011057
-0.0106344
0.000109124
-0.000124513
-0.0112759
-0.00298085
0.00196561
0.0127045
-0.0116892
0.000372985
-0.000290873
0.0260997
0.00115068
-0.0160127
0.0161723
-0.00157887
-6.00866e-05
-0.0176906
0.000283887
0.0255626
0.00273611
-0.00128321
0.0129031
-0.0143559
-0.0255738
0.000469815
-0.000499893
0.0217331
-0.00052838
-0.0217764
0.0273224
0.000341079
-0.000230176
0.00107329
0.000261833
0.0167573
-0.0180924
0.003313
-0.017827
0.0157063
0.000603193
-0.000733634
0.0243061
-4.66824e-05
-0.0144028
0.00133981
-0.00977721
-0.0128049
0.0196496
-0.000325819
0.00034499
0.00104381
-0.0123563
-0.00147638
0.0127889
-0.00278074
0.002013
0.0170023
-0.0162345
0.000495919
-0.00045864
0.0136266
-0.000777783
0.000719987
-0.0135687
-0.000109092
-9.86554e-05
0.019017
0.000635338
0.0126877
-0.0103973
-0.000633725
-0.0153551
0.0155123
0.0157163
0.0139433
0.000488328
-0.000737738
-0.0136939
-0.01222
0.0139247
-0.0151555
0.00396691
0.000171619
0.0161537
0.0170177
-0.0151019
-0.000851449
-0.00106433
0.0129075
0.000190371
-0.0349652
0.0349631
-0.000604468
0.00961057
-0.0192243
0.0160216
-0.000373408
-0.0161253
0.0298458
-0.0297484
-0.000196476
9.92312e-05
0.00138664
0.0200951
-0.019921
0.000331925
-0.00032687
-0.000880852
0.00083019
0.0142529
-0.0142022
-0.000209898
-0.000686032
0.0214752
0.00142534
-0.015117
-0.00186101
0.0155527
0.0230034
0.00167309
-0.0041477
0.0250371
-0.0225624
-0.000378722
0.000340905
0.000723021
0.0205296
0.000540271
0.0282398
-0.000301507
-0.000473525
0.00992109
7.98793e-05
-0.00907251
-8.0243e-05
-0.000255148
0.0158304
0.0150757
-0.00046422
-0.0166503
0.0147514
0.00125235
0.0170862
-0.0174614
0.00109835
-0.000723069
1.43502e-05
3.74301e-05
-0.000168525
0.000456026
-0.00164428
-0.00988447
-0.0213836
0.000406223
0.0213187
-0.0343153
-0.00252185
0.00147753
-0.000314066
0.0101654
-0.000497254
-0.0142233
0.00044211
0.0142785
-0.0148341
0.0149571
-0.000635062
-0.0270702
-0.000361617
-0.0162488
0.00119506
0.0332412
-0.00136461
-0.000133641
0.0144706
0.000195693
-0.0267895
-0.000188589
0.0244419
-0.0244906
0.000614121
-0.000565308
-0.0199173
0.0193629
0.00194113
-0.0217166
0.0219974
-0.00169224
-0.000109952
-0.0114586
-0.00040596
0.000579428
-0.017852
0.0176786
0.000119211
0.01286
-0.00020973
-0.0147717
0.0150764
7.70165e-05
-0.0272706
-0.000104505
9.27467e-05
-5.71528e-06
-0.0150541
0.000570061
0.0153758
-0.0173833
-0.00232816
0.00102034
0.0186912
-0.0252513
0.000895191
0.0157943
-0.0179521
0.0311503
0.0126985
-0.000987836
0.00109069
-0.0128014
-0.000274315
-0.0163479
-0.0189768
-0.000373108
0.00059534
0.0144411
-0.0142993
-0.000775434
0.000346284
-0.000981811
0.0166208
0.00091081
0.0200184
-0.00945098
-0.000616857
-1.64372e-05
-1.18534e-05
0.00984242
-0.00127293
0.000244306
-0.010024
-0.0296637
0.0303377
-0.0184585
-0.000345279
-0.00079906
0.000895104
0.0139806
-0.0140766
-0.016665
0.000222287
-8.34092e-05
0.0161072
-0.0162461
0.0319209
-0.00111587
0.000302118
-0.0311069
-0.0145323
0.0146178
0.0129213
-0.0286861
-0.00059863
0.0232316
0.00040939
-0.000444688
-0.00838932
-0.00132411
0.000411363
-0.000311357
-0.000447658
-0.0024156
-0.0196774
0.0225407
-0.000414915
0.00221325
-0.0171751
0.00037612
0.000310771
0.0124692
0.0177804
-0.0178976
-2.22932e-06
0.011375
0.0126691
0.00141328
0.0267932
0.0208956
-0.0209147
-0.000274514
0.000293677
-0.0150282
0.0160177
-0.0037702
-0.000262996
-0.00097893
-0.000354204
0.0285101
0.000598363
-0.0290243
-8.39909e-05
-0.0286247
-0.000358713
0.00132096
-0.0154299
0.0154148
-0.00130575
8.6921e-05
0.0104154
0.000935578
-0.00098748
0.0147899
-0.014738
-0.0299096
0.00030683
-0.000145371
0.00119271
-0.0183882
-0.0169414
-0.00110623
0.0152708
0.0140242
0.00057706
0.000151635
0.000131875
0.000734647
-0.0227107
0.0213083
-0.0193498
0.00152274
-0.0034812
0.000566618