/*--------------------------------*- C++ -*----------------------------------*\
| =========                 |                                                 |
| \\      /  F ield         | OpenFOAM: The Open Source CFD Toolbox           |
|  \\    /   O peration     | Version:  dev                                   |
|   \\  /    A nd           | Web:      www.OpenFOAM.org                      |
|    \\/     M anipulation  |                                                 |
\*---------------------------------------------------------------------------*/
FoamFile
{
    version     2.0;
    format      ascii;
    class       volScalarField;
    location    "0.260000";
    object      yPlus;
}
// * * * * * * * * * * * * * * * * * * * * * * * * * * * * * * * * * * * * * //

dimensions      [0 0 0 0 0 0 0];

internalField   uniform 0;

boundaryField
{
    Back
    {
        type            empty;
    }
    Front
    {
        type            empty;
    }
    Inlet
    {
        type            calculated;
        value           uniform 0;
    }
    Bottom
    {
        type            symmetryPlane;
    }
    Outlet
    {
        type            calculated;
        value           uniform 0;
    }
    Top
    {
        type            symmetryPlane;
    }
    Head
    {
        type            calculated;
        value           nonuniform List<scalar> 
932
(
108.825
113.79
113.642
113.584
113.559
113.53
113.531
113.618
113.742
113.869
113.98
114.06
114.108
114.137
114.151
114.155
114.152
114.144
114.135
114.126
114.117
114.109
114.103
114.097
114.092
114.087
114.083
114.079
114.077
114.075
114.074
114.073
114.073
114.073
114.073
114.073
114.072
114.072
114.07
114.069
114.067
114.065
114.063
114.061
114.058
114.055
114.053
114.05
114.049
114.046
114.043
114.041
114.038
114.036
114.034
114.032
114.031
114.029
114.027
114.026
114.025
114.024
114.023
114.021
114.02
114.019
114.018
114.017
114.016
114.015
114.014
114.013
114.013
114.012
114.011
114.01
114.009
114.008
114.007
114.006
114.005
114.003
114.002
114.001
114
113.999
113.998
113.997
113.996
113.995
113.994
113.993
113.992
113.991
113.99
113.989
113.988
113.987
113.986
113.985
113.984
113.983
113.982
113.981
113.98
113.979
113.978
113.977
113.976
113.975
113.974
113.973
113.972
113.971
113.971
113.97
113.969
113.968
113.968
113.967
113.967
113.967
113.966
113.966
113.966
113.965
113.965
113.965
113.964
113.964
113.963
113.963
113.963
113.963
113.962
113.961
113.963
113.962
113.96
113.959
113.959
113.958
113.957
113.957
113.956
113.956
113.955
113.955
113.955
113.955
113.954
113.954
113.954
113.954
113.954
113.953
113.953
113.953
113.953
113.953
113.953
113.953
113.953
113.953
113.952
113.952
113.952
113.951
113.951
113.951
113.95
113.95
113.95
113.95
113.949
113.949
113.949
113.949
113.949
113.948
113.948
113.948
113.948
113.947
113.947
113.947
113.946
113.946
113.946
113.945
113.945
113.945
113.944
113.944
113.943
113.943
113.943
113.942
113.942
113.942
113.942
113.941
113.941
113.941
113.941
113.941
113.941
113.94
113.94
113.94
113.94
113.94
113.94
113.941
113.941
113.941
113.941
113.941
113.942
113.942
113.943
113.943
113.943
113.944
113.944
113.945
113.945
113.946
113.946
113.947
113.948
113.949
113.949
113.95
113.951
113.952
113.953
113.955
113.956
113.958
113.96
113.963
113.965
113.971
113.975
113.998
113.993
114.711
108.043
105
132.953
130.248
128.396
127.138
126.261
125.615
125.13
124.727
124.408
124.126
123.89
123.672
123.486
123.325
123.202
123.057
122.958
122.825
122.716
122.571
122.443
122.306
122.131
121.982
121.82
121.635
121.45
121.27
121.102
120.917
120.705
120.502
120.307
120.076
119.88
119.664
119.459
119.23
119.037
118.834
118.629
118.413
118.213
118
117.824
117.636
117.446
117.255
117.081
116.922
116.743
116.591
116.447
116.289
116.143
116.003
115.867
115.739
115.611
115.509
115.411
115.306
115.197
115.117
115.04
114.956
114.862
114.802
114.71
114.665
114.583
114.537
114.456
114.424
114.343
115.14
107.955
108.834
113.798
113.65
113.59
113.564
113.534
113.535
113.622
113.746
113.874
113.986
114.066
114.115
114.144
114.159
114.162
114.16
114.152
114.142
114.133
114.124
114.116
114.11
114.104
114.098
114.094
114.089
114.086
114.083
114.081
114.08
114.079
114.079
114.079
114.078
114.078
114.077
114.077
114.075
114.074
114.072
114.07
114.067
114.065
114.062
114.06
114.057
114.055
114.052
114.05
114.047
114.045
114.043
114.041
114.039
114.038
114.036
114.034
114.033
114.031
114.03
114.029
114.027
114.026
114.025
114.024
114.022
114.021
114.02
114.019
114.018
114.016
114.015
114.014
114.013
114.012
114.011
114.01
114.009
114.008
114.007
114.006
114.005
114.004
114.003
114.002
114.001
114
113.999
113.998
113.997
113.996
113.995
113.994
113.993
113.991
113.99
113.989
113.988
113.987
113.986
113.985
113.984
113.983
113.982
113.981
113.98
113.979
113.978
113.977
113.976
113.975
113.975
113.974
113.973
113.972
113.971
113.971
113.97
113.97
113.969
113.969
113.968
113.968
113.968
113.967
113.967
113.967
113.966
113.966
113.966
113.965
113.965
113.965
113.965
113.964
113.964
113.964
113.963
113.963
113.963
113.962
113.962
113.962
113.961
113.961
113.961
113.961
113.96
113.959
113.961
113.96
113.959
113.958
113.957
113.956
113.956
113.955
113.955
113.954
113.954
113.954
113.954
113.953
113.953
113.953
113.952
113.952
113.952
113.951
113.951
113.951
113.95
113.95
113.949
113.949
113.948
113.948
113.947
113.947
113.946
113.945
113.945
113.944
113.944
113.943
113.943
113.942
113.942
113.942
113.942
113.941
113.941
113.941
113.941
113.941
113.941
113.941
113.941
113.941
113.942
113.942
113.942
113.942
113.942
113.942
113.943
113.943
113.943
113.943
113.943
113.944
113.944
113.944
113.944
113.945
113.945
113.945
113.946
113.946
113.947
113.947
113.948
113.948
113.949
113.95
113.95
113.951
113.951
113.952
113.953
113.954
113.955
113.956
113.957
113.958
113.959
113.961
113.962
113.964
113.966
113.969
113.971
113.977
113.981
114.004
113.999
114.717
108.049
98.5897
90.8825
82.858
76.7212
72.4821
69.785
68.2134
67.3007
66.8029
66.5028
66.2964
66.1384
65.9782
65.8352
65.7046
65.5725
65.4498
65.3408
65.2692
65.1066
63.9262
105.063
133.032
130.303
128.456
127.178
126.31
125.651
125.172
124.765
124.444
124.16
123.921
123.701
123.513
123.35
123.225
123.078
122.978
122.844
122.734
122.589
122.46
122.322
122.148
121.998
121.837
121.652
121.466
121.286
121.119
120.933
120.722
120.519
120.324
120.094
119.898
119.684
119.48
119.253
119.063
118.861
118.658
118.443
118.245
118.032
117.856
117.668
117.478
117.286
117.112
116.952
116.772
116.618
116.473
116.315
116.168
116.027
115.89
115.762
115.634
115.531
115.432
115.327
115.217
115.136
115.059
114.974
114.881
114.82
114.727
114.682
114.6
114.553
114.47
114.437
114.355
115.152
107.966
23.8566
24.4481
25.5369
26.928
28.4742
30.3745
32.5418
34.8751
37.304
39.8364
42.5071
45.3043
48.2616
51.3637
54.5735
57.8981
61.3339
64.852
68.2677
71.7648
75.2161
78.62
81.8561
84.9766
88.1081
90.3856
93.6306
95.736
97.186
98.1968
97.9493
96.6603
94.9637
91.9337
90.3512
87.738
85.0583
81.7422
78.4243
74.98
71.4946
67.9593
64.6192
60.9554
57.4593
54.0822
50.8498
47.7228
44.7483
41.9326
39.2537
36.7174
34.2678
31.9161
29.7451
27.7762
26.029
24.6335
23.249
19.3115
98.518
99.1213
90.8117
95.1321
82.794
86.6167
76.6657
79.5057
72.4332
74.3366
69.7419
70.9425
68.1749
68.8649
67.2641
67.6676
66.768
66.9867
66.4683
66.6259
66.2612
66.3795
66.1016
66.1948
65.9412
66.0491
65.7989
65.8947
65.6684
65.7633
65.5363
65.6076
65.4131
65.4935
65.3065
65.3909
65.2357
65.2577
65.0738
65.1702
63.8957
65.0971
98.3221
97.3152
88.7618
81.1245
75.4533
71.6391
69.2772
67.9014
67.1192
66.6795
66.4201
66.2359
66.0847
65.9529
65.7847
65.6601
65.5474
65.4152
65.316
65.2035
65.1295
20.9011
23.5502
24.6152
25.9507
27.6711
29.639
31.8242
34.1746
36.63
39.1707
41.8541
44.6762
47.6502
50.7696
54.0377
57.4174
60.8949
64.5592
67.9197
71.4669
74.9565
78.4137
81.7398
84.8922
88.077
89.3271
91.7399
94.9026
96.5831
97.898
98.1968
97.2646
95.7426
93.7714
90.7692
88.3336
84.9572
81.8772
78.6307
75.234
71.7929
68.3011
64.9061
61.3976
57.9455
54.6193
51.4269
48.3319
45.3767
42.5842
39.9175
37.3886
34.9654
32.629
30.4729
28.5781
27.0154
25.6109
24.4294
23.1608
99.1008
92.9991
84.7179
78.0735
73.3665
70.3243
68.4952
67.4709
66.8943
66.5588
66.3712
66.1909
66.0364
65.8803
65.7465
65.6327
65.4962
65.3934
99.0329
98.267
92.9279
97.2441
84.6511
88.6925
78.0146
81.0613
73.3158
75.3988
70.2794
71.5913
68.456
69.2358
67.4335
67.8632
66.8587
67.0828
66.5241
66.6445
66.3366
66.3856
66.1548
66.2009
65.9994
66.048
65.8438
65.9162
65.7103
65.7484
65.5965
65.6236
65.462
65.5116
65.3586
65.3799
65.282
99.1818
95.2049
86.6843
79.5654
74.3885
70.9887
68.905
67.7051
67.0223
66.6605
66.4142
66.2308
66.0864
65.9312
65.7995
65.6438
65.5296
65.4257
65.2915
)
;
    }
}


// ************************************************************************* //
