0.00777777778 	-1.24055223 	1.84481174 	0
0.00555555556 	-1.31182939 	2.07210515 	0
0.00333333333 	-1.43347473 	2.37497495 	0
0.00111111111 	-1.58695267 	2.52378675 	0
-0.00111111111 	-1.50583509 	1.87134352 	0
-0.00333333333 	-0.411659609 	0.896119313 	0
-0.00555555556 	0.00406170684 	0.263254377 	0
-0.00777777778 	0.24950979 	0.0273660835 	0
-0.01 	0.399329635 	-0.0731474125 	0
-0.0122222222 	0.450191515 	-0.115433974 	0
-0.0144444444 	0.410790271 	-0.128010328 	0
-0.0166666667 	0.316244123 	-0.143343087 	0
-0.0188888889 	0.199353967 	-0.159036745 	0
-0.0211111111 	0.0669847117 	-0.167637926 	0
-0.0233333333 	-0.0736181438 	-0.167464767 	0
-0.0255555556 	-0.216302795 	-0.16000724 	0
-0.0277777778 	-0.352330161 	-0.149709991 	0
-0.03 	-0.483469336 	-0.139694279 	0
-0.0322222222 	-0.608580873 	-0.130503581 	0
-0.0344444444 	-0.726744215 	-0.121927398 	0
-0.0366666667 	-0.837960289 	-0.113821824 	0
-0.0388888889 	-0.942370568 	-0.10611418 	0
-0.0411111111 	-1.0401346 	-0.0987580323 	0
-0.0433333333 	-1.13142887 	-0.0917161641 	0
-0.0455555556 	-1.2164377 	-0.0849557085 	0
-0.0477777778 	-1.29534322 	-0.0784480535 	0
-0.05 	-1.36832121 	-0.0721711115 	0
-0.0522222222 	-1.43554186 	-0.0661117767 	0
-0.0544444444 	-1.49717319 	-0.0602649679 	0
-0.0566666667 	-1.5533856 	-0.0546318824 	0
-0.0588888889 	-1.60435767 	-0.0492203302 	0
-0.0611111111 	-1.65028192 	-0.0440456454 	0
-0.0633333333 	-1.69137082 	-0.0391299548 	0
-0.0655555556 	-1.72786131 	-0.0344989154 	0
-0.0677777778 	-1.76001653 	-0.0301778049 	0
-0.07 	-1.78812545 	-0.0261881579 	0
-0.0722222222 	-1.81250003 	-0.0225452473 	0
-0.0744444444 	-1.83347034 	-0.0192568099 	0
-0.0766666667 	-1.85137814 	-0.0163231943 	0
-0.0788888889 	-1.86656969 	-0.013737356 	0
-0.0811111111 	-1.87938579 	-0.0114869022 	0
-0.0833333333 	-1.8901539 	-0.00955767629 	0
-0.0855555556 	-1.89917235 	-0.00792647279 	0
-0.0877777778 	-1.90670687 	-0.00656092105 	0
-0.09 	-1.91299155 	-0.0054271581 	0
-0.0922222222 	-1.91823095 	-0.00449405707 	0
-0.0944444444 	-1.92260398 	-0.00373268645 	0
-0.0966666667 	-1.92626589 	-0.00311589909 	0
-0.0988888889 	-1.92934819 	-0.00261850023 	0
-0.101111111 	-1.93195953 	-0.00221792832 	0
-0.103333333 	-1.93418815 	-0.00189477052 	0
-0.105555556 	-1.93610486 	-0.00163285628 	0
-0.107777778 	-1.93776606 	-0.00141906394 	0
-0.11 	-1.93921643 	-0.00124296731 	0
-0.112222222 	-1.94049136 	-0.00109643339 	0
-0.114444444 	-1.94161897 	-0.000973207167 	0
-0.116666667 	-1.94262172 	-0.000868502134 	0
-0.118888889 	-1.94351768 	-0.000778661206 	0
-0.121111111 	-1.94432156 	-0.000700887695 	0
-0.123333333 	-1.94504542 	-0.000633031426 	0
-0.125555556 	-1.9456993 	-0.000573425397 	0
-0.127777778 	-1.9462916 	-0.000520763141 	0
-0.13 	-1.94682944 	-0.000474005826 	0
-0.132222222 	-1.94731889 	-0.000432314284 	0
-0.134444444 	-1.94776519 	-0.000395002226 	0
-0.136666667 	-1.94817288 	-0.000361501991 	0
-0.138888889 	-1.94854591 	-0.000331338016 	0
-0.141111111 	-1.94888774 	-0.000304107289 	0
-0.143333333 	-1.94920142 	-0.000279466567 	0
-0.145555556 	-1.94948963 	-0.00025712284 	0
-0.147777778 	-1.94975475 	-0.000236822652 	0
-0.15 	-1.94999891 	-0.00021834484 	0
-0.152222222 	-1.95022399 	-0.000201497612 	0
-0.154444444 	-1.95043168 	-0.000186114541 	0
-0.156666667 	-1.9506235 	-0.000172048903 	0
-0.158888889 	-1.95080081 	-0.000159169714 	0
-0.161111111 	-1.95096484 	-0.000147361245 	0
-0.163333333 	-1.95111669 	-0.000136522267 	0
-0.165555556 	-1.95125737 	-0.000126562686 	0
-0.167777778 	-1.95138779 	-0.000117400905 	0
-0.17 	-1.95150876 	-0.000108964043 	0
-0.172222222 	-1.95162104 	-0.000101188256 	0
-0.174444444 	-1.95172531 	-9.40165265e-05 	0
-0.176666667 	-1.95182219 	-8.7396518e-05 	0
-0.178888889 	-1.95191224 	-8.12804952e-05 	0
-0.181111111 	-1.951996 	-7.56259175e-05 	0
-0.183333333 	-1.95207393 	-7.03949701e-05 	0
-0.185555556 	-1.95214647 	-6.55526934e-05 	0
-0.187777778 	-1.95221403 	-6.10667556e-05 	0
-0.19 	-1.95227695 	-5.69086068e-05 	0
-0.192222222 	-1.95233559 	-5.3053021e-05 	0
-0.194444444 	-1.95239026 	-4.94763931e-05 	0
-0.196666667 	-1.95244125 	-4.61558963e-05 	0
-0.198888889 	-1.95248882 	-4.30705943e-05 	0
-0.201111111 	-1.9525332 	-4.02027544e-05 	0
-0.203333333 	-1.95257463 	-3.75369208e-05 	0
-0.205555556 	-1.95261331 	-3.5058107e-05 	0
-0.207777778 	-1.95264944 	-3.27514503e-05 	0
-0.21 	-1.95268319 	-3.06032515e-05 	0
-0.212222222 	-1.95271472 	-2.86020934e-05 	0
-0.214444444 	-1.95274419 	-2.67384434e-05 	0
-0.216666667 	-1.95277174 	-2.50028481e-05 	0
-0.218888889 	-1.95279749 	-2.33850596e-05 	0
-0.221111111 	-1.95282158 	-2.18748597e-05 	0
-0.223333333 	-1.95284411 	-2.04634106e-05 	0
-0.225555556 	-1.95286518 	-1.91439367e-05 	0
-0.227777778 	-1.95288489 	-1.79111235e-05 	0
-0.23 	-1.95290335 	-1.67600186e-05 	0
-0.232222222 	-1.95292061 	-1.56858041e-05 	0
-0.234444444 	-1.95293677 	-1.46843171e-05 	0
-0.236666667 	-1.95295191 	-1.37520865e-05 	0
-0.238888889 	-1.95296609 	-1.28856281e-05 	0
-0.241111111 	-1.95297937 	-1.2080781e-05 	0
-0.243333333 	-1.95299183 	-1.13329555e-05 	0
-0.245555556 	-1.95300352 	-1.06378573e-05 	0
-0.247777778 	-1.95301449 	-9.99184448e-06 	0
-0.25 	-1.9530248 	-9.39163482e-06 	0
-0.252222222 	-1.95303449 	-8.83387509e-06 	0
-0.254444444 	-1.9530436 	-8.3150682e-06 	0
-0.256666667 	-1.95305217 	-7.83183378e-06 	0
-0.258888889 	-1.95306024 	-7.38104197e-06 	0
-0.261111111 	-1.95306785 	-6.95964377e-06 	0
-0.263333333 	-1.95307501 	-6.56467817e-06 	0
-0.265555556 	-1.95308176 	-6.19380672e-06 	0
-0.267777778 	-1.95308812 	-5.84579462e-06 	0
-0.27 	-1.95309413 	-5.52013163e-06 	0
-0.272222222 	-1.95309981 	-5.2163277e-06 	0
-0.274444444 	-1.95310516 	-4.93375079e-06 	0
-0.276666667 	-1.95311022 	-4.67199337e-06 	0
-0.278888889 	-1.95311502 	-4.43100122e-06 	0
-0.281111111 	-1.95311956 	-4.21057514e-06 	0
-0.283333333 	-1.95312388 	-4.00967073e-06 	0
-0.285555556 	-1.95312798 	-3.82631487e-06 	0
-0.287777778 	-1.95313189 	-3.65823546e-06 	0
-0.29 	-1.95313562 	-3.50365792e-06 	0
-0.292222222 	-1.95313919 	-3.36130936e-06 	0
-0.294444444 	-1.9531426 	-3.22970926e-06 	0
-0.296666667 	-1.95314587 	-3.10684614e-06 	0
