/*--------------------------------*- C++ -*----------------------------------*\
| =========                 |                                                 |
| \\      /  F ield         | OpenFOAM: The Open Source CFD Toolbox           |
|  \\    /   O peration     | Version:  2.1.0                                 |
|   \\  /    A nd           | Web:      www.OpenFOAM.org                      |
|    \\/     M anipulation  |                                                 |
\*---------------------------------------------------------------------------*/
FoamFile
{
    version     2.0;
    format      ascii;
    class       volScalarField;
    object      epsilon;
}
// * * * * * * * * * * * * * * * * * * * * * * * * * * * * * * * * * * * * * //

dimensions      [0 0 -1 0 0 0 0];

internalField   uniform 241.03313733738133;


boundaryField
{
    Inlet
    {
        type            fixedValue;
        value           uniform 241.03313733738133;
    }
    Outlet
    {
        type            inletOutlet;
        inletValue      $internalField;
        value           $internalField;
    }
    Head
    {
       type            omegaWallFunction;
       value           $internalField;
    }
    
    Back
    {
        type            empty;
    }
    Front
    {
        type            empty;
    }
    Top
    {
        type            symmetryPlane;
    }
    Bottom
    {
        type            symmetryPlane;
    }
}


// ************************************************************************* //
