/*--------------------------------*- C++ -*----------------------------------*\
| =========                 |                                                 |
| \\      /  F ield         | OpenFOAM: The Open Source CFD Toolbox           |
|  \\    /   O peration     | Version:  4.0                                   |
|   \\  /    A nd           | Web:      www.OpenFOAM.org                      |
|    \\/     M anipulation  |                                                 |
\*---------------------------------------------------------------------------*/
FoamFile
{
    version     2.0;
    format      ascii;
    class       volVectorField;
    location    "0";
    object      U;
}
// * * * * * * * * * * * * * * * * * * * * * * * * * * * * * * * * * * * * * //

dimensions      [0 1 -1 0 0];
// 16.325
internalField   uniform (0 0 0);

boundaryField
{
    Inlet
    {
        type            fluxCorrectedVelocity;
    }

    Outlet
    {
        type            fluxCorrectedVelocity;
    }
    Head
    {
        type            noSlip;
    }
    Back
    {
        type            empty;
    }
    Front
    {
        type            empty;
    }
    Top
    {
        type            symmetryPlane;
    }
    Bottom
    {
        type            symmetryPlane;
    }
}

// ************************************************************************* //
