/*--------------------------------*- C++ -*----------------------------------*\
| =========                 |                                                 |
| \\      /  F ield         | OpenFOAM: The Open Source CFD Toolbox           |
|  \\    /   O peration     | Version:  dev                                   |
|   \\  /    A nd           | Web:      www.OpenFOAM.org                      |
|    \\/     M anipulation  |                                                 |
\*---------------------------------------------------------------------------*/
FoamFile
{
    version     2.0;
    format      ascii;
    class       volScalarField;
    location    "0.260000";
    object      dgdt.water;
}
// * * * * * * * * * * * * * * * * * * * * * * * * * * * * * * * * * * * * * //

dimensions      [0 0 -1 0 0 0 0];

internalField   nonuniform List<scalar> 
87727
(
-0.00183336
-0.00183947
-0.00184083
-0.00183283
-0.001827
-0.00183129
-0.00179966
-0.00163053
-0.00173947
-0.00182915
-0.00165236
-0.00166427
-0.00182746
-0.00182454
-0.00161765
-0.00182406
-0.00170346
-0.0018167
-0.0018283
-0.00183123
-0.00182944
-0.00180897
-0.00182124
-0.00171721
-0.00160378
-0.00160109
-0.00175217
-0.00160889
-0.00179464
-0.00183131
-0.00182441
-0.00183065
-0.00181729
-0.00181237
-0.00178347
-0.00182965
-0.00183164
-0.00183159
-0.00180299
-0.00183762
-0.0017933
-0.00178767
-0.00180986
-0.00182833
-0.00183295
-0.00177488
-0.00181541
-0.00182718
-0.00183171
-0.00183051
-0.00182614
-0.0016675
-0.00183149
-0.00183775
-0.00182662
-0.00182581
-0.00176016
-0.00182999
-0.00183265
-0.00174916
-0.00171122
-0.00182027
-0.00181496
-0.00162133
-0.00183864
-0.00184129
-0.00179602
-0.00182289
-0.00182705
-0.00183027
-0.00182894
-0.00182869
-0.00182934
-0.00183789
-0.00183586
-0.00183726
-0.00183851
-0.00183795
-0.00182903
-0.00182326
-0.00183869
-0.00183396
-0.00183534
-0.00182787
-0.00183196
-0.00180911
-0.00182911
-0.0018334
-0.00183213
-0.00183869
-0.00182564
-0.00183332
-0.00182021
-0.00181961
-0.00181911
-0.00182315
-0.00184235
-0.00182839
-0.00172626
-0.00182906
-0.00183429
-0.00183235
-0.00182807
-0.00182908
-0.00183153
-0.00184085
-0.00182059
-0.00181535
-0.00183229
-0.00183129
-0.00165426
-0.00182994
-0.00182066
-0.00183514
-0.00183043
-0.00172497
-0.00184157
-0.00168975
-0.00183741
-0.00183289
-0.00182799
-0.00183321
-0.00167264
-0.00183495
-0.00182757
-0.00171547
-0.00182493
-0.0018382
-0.00181313
-0.00182876
-0.00183344
-0.00180079
-0.00164236
-0.00179298
-0.001701
-0.00175501
-0.0018304
-0.00182222
-0.00181794
-0.00182963
-0.00182699
-0.00183239
-0.00179679
-0.0018139
-0.00180598
-0.00183459
-0.00182387
-0.00181071
-0.00178114
-0.00182261
-0.00183201
-0.00172268
-0.00183309
-0.00183804
-0.00180709
-0.00182495
-0.00183153
-0.00182644
-0.00177536
-0.00170703
-0.00183287
-0.00182728
-0.00162253
-0.00180509
-0.00182157
-0.00182897
-0.00184051
-0.00184097
-0.00183782
-0.0018383
-0.00183551
-0.00183297
-0.0018346
-0.00182696
-0.00183914
-0.0017984
-0.00183078
-0.00182872
-0.00180075
-0.00179591
-0.00177827
-0.00179054
-0.00183026
-0.00183762
-0.00178152
-0.00178466
-0.00183217
-0.00182677
-0.00172896
-0.00183554
-0.0018305
-0.0018383
-0.00176399
-0.0018273
-0.00183362
-0.00184043
-0.00183753
-0.00183237
-0.00183645
-0.00183693
-0.00183979
-0.00180367
-0.00182953
-0.00183052
-0.00183918
-0.00176773
-0.00177136
-0.00183911
-0.0018345
-0.00183487
-0.00180633
-0.00180203
-0.00182913
-0.0018304
-0.00182694
-0.00181147
-0.00183735
-0.00183917
-0.00183274
-0.00176272
-0.0016696
-0.00183936
-0.00183337
-0.00183874
-0.0016504
-0.00183351
-0.00180405
-0.00182896
-0.00182932
-0.00174376
-0.00183304
-0.00184243
-0.00184211
-0.00182888
-0.00182832
-0.00183261
-0.00183089
-0.00177472
-0.00178196
-0.00183272
-0.00184129
-0.00174946
-0.00182824
-0.0018107
-0.00173069
-0.00175887
-0.001767
-0.00183192
-0.00184126
-0.00183094
-0.00182728
-0.00161212
-0.00170804
-0.0017562
-0.00182352
-0.00182208
-0.00169427
-0.00182878
-0.00182553
-0.00174799
-0.00183117
-0.00183802
-0.00178941
-0.0018278
-0.00184127
-0.00182528
-0.00175222
-0.00182946
-0.00167681
-0.00182818
-0.00182968
-0.00183287
-0.00182369
-0.00182358
-0.00173132
-0.00172155
-0.00181788
-0.00166129
-0.00183218
-0.00183319
-0.00165619
-0.00183128
-0.00180694
-0.001825
-0.00164551
-0.00173509
-0.00182964
-0.00184236
-0.00183813
-0.00182772
-0.00163336
-0.00178538
-0.00173279
-0.00182474
-0.00181154
-0.00167745
-0.00182672
-0.00183474
-0.00182841
-0.0018295
-0.00162513
-0.00182742
-0.00182844
-0.00172174
-0.00182326
-0.0018272
-0.0018291
-0.00182864
-0.00182905
-0.00182899
-0.00182441
-0.00171261
-0.00165911
-0.0018289
-0.00169884
-0.0018385
-0.00167781
-0.00180988
-0.00181072
-0.0018281
-0.00179635
-0.00181277
-0.0018264
-0.00182299
-0.00182993
-0.00182974
-0.00165735
-0.001816
-0.00181027
-0.00183828
-0.00183086
-0.00182111
-0.00168099
-0.00183592
-0.00168527
-0.00161395
-0.00183896
-0.00183709
-0.00183002
-0.00182559
-0.0016684
-0.00183515
-0.00181665
-0.00181848
-0.00166017
-0.00183244
-0.00183804
-0.00182693
-0.00183049
-0.00183904
-0.00183007
-0.00181471
-0.00181174
-0.00183856
-0.00184181
-0.00183136
-0.00164878
-0.00183956
-0.00182868
-0.00173657
-0.00173413
-0.00177907
-0.0018316
-0.00181519
-0.00182166
-0.00183246
-0.00182724
-0.00184159
-0.00184046
-0.00163626
-0.00182504
-0.00163926
-0.00182757
-0.00166879
-0.00172107
-0.00166939
-0.00167986
-0.00180707
-0.00172199
-0.00162906
-0.00183717
-0.00181465
-0.00177326
-0.00183289
-0.00182597
-0.0016278
-0.00170757
-0.00182828
-0.0018285
-0.00183468
-0.00168574
-0.00183997
-0.00180287
-0.00169047
-0.00178834
-0.00174002
-0.001649
-0.00178883
-0.00178752
-0.00183427
-0.00181003
-0.00182423
-0.00183638
-0.00183933
-0.00183904
-0.00181211
-0.00183991
-0.00183133
-0.00163715
-0.00182897
-0.00183179
-0.00182401
-0.00182489
-0.00182858
-0.00179114
-0.00182853
-0.00182899
-0.00182885
-0.00182874
-0.00182812
-0.00182937
-0.00182615
-0.00182865
-0.0018289
-0.00182924
-0.00183137
-0.00183061
-0.00182917
-0.00180803
-0.00183071
-0.00181688
-0.0017973
-0.0017383
-0.00182923
-0.0018303
-0.00183722
-0.00162395
-0.00175816
-0.00182555
-0.00183208
-0.00160689
-0.0018298
-0.00182559
-0.00183039
-0.00182859
-0.00182685
-0.00182908
-0.00181266
-0.00179741
-0.00162009
-0.00161877
-0.00178022
-0.00184068
-0.00183829
-0.00182826
-0.00182906
-0.0018372
-0.00177359
-0.00183793
-0.00183121
-0.00161489
-0.00183858
-0.00161601
-0.00182735
-0.00182865
-0.00169377
-0.00160549
-0.00182965
-0.00182826
-0.00182789
-0.00175042
-0.00175893
-0.00168054
-0.00182971
-0.00183789
-0.00182872
-0.00183854
-0.00183576
-0.00182179
-0.00183842
-0.00183525
-0.00182513
-0.00183581
-0.00176736
-0.00164268
-0.00181473
-0.001839
-0.0018324
-0.00182808
-0.00183112
-0.00170144
-0.00175361
-0.00182906
-0.00180205
-0.00182848
-0.0017803
-0.00183951
-0.00182907
-0.00181358
-0.00182234
-0.00183184
-0.00183477
-0.00182245
-0.00177572
-0.00182906
-0.00175512
-0.00183371
-0.00182064
-0.00182873
-0.00182898
-0.0018345
-0.00182245
-0.00172986
-0.00169821
-0.00182593
-0.00182962
-0.00182538
-0.00181902
-0.00182884
-0.00182944
-0.00182336
-0.00182905
-0.001838
-0.00182715
-0.00182641
-0.0018173
-0.00182833
-0.00182453
-0.00182421
-0.00183035
-0.00183389
-0.00182968
-0.00182975
-0.00182826
-0.00183302
-0.00183123
-0.00182588
-0.00168306
-0.00182455
-0.00182839
-0.0018279
-0.00182915
-0.00178322
-0.00182968
-0.00182308
-0.00183953
-0.00180895
-0.0018394
-0.00166231
-0.00183242
-0.00176984
-0.00183192
-0.00176872
-0.00183272
-0.00182859
-0.00168692
-0.00183113
-0.00180872
-0.00182822
-0.00183949
-0.00182921
-0.00172929
-0.00176042
-0.00167493
-0.00182997
-0.00180365
-0.00168746
-0.00182968
-0.00168708
-0.00182998
-0.00161037
-0.00182569
-0.00174501
-0.00184074
-0.00183278
-0.00182587
-0.00178373
-0.00183776
-0.00177715
-0.00182603
-0.00176662
-0.00182382
-0.00180284
-0.00169538
-0.00182828
-0.00183082
-0.0016737
-0.00182904
-0.00182953
-0.00177005
-0.00180189
-0.00182897
-0.00183281
-0.00182372
-0.00182323
-0.00183027
-0.00182925
-0.00175278
-0.00182871
-0.00171109
-0.00182284
-0.0018305
-0.00183033
-0.00181462
-0.00161342
-0.00183987
-0.00182932
-0.0018356
-0.00160752
-0.0018184
-0.0018137
-0.0018254
-0.00182942
-0.00182957
-0.00182027
-0.00179051
-0.00163957
-0.00183887
-0.00182849
-0.00182454
-0.00182917
-0.00182504
-0.00182896
-0.00183061
-0.00182918
-0.00179967
-0.0018233
-0.00182362
-0.00183106
-0.00181593
-0.00183292
-0.00182983
-0.00171404
-0.00171211
-0.00181532
-0.00174126
-0.00180584
-0.00183266
-0.00176782
-0.00162747
-0.00182659
-0.0018267
-0.0016288
-0.00179482
-0.00183203
-0.00177643
-0.00176889
-0.00182201
-0.0017865
-0.00173737
-0.00182525
-0.00183755
-0.00182602
-0.00183053
-0.00182023
-0.00183078
-0.00175942
-0.00183475
-0.00181605
-0.00183766
-0.0018058
-0.00184038
-0.00183318
-0.00181745
-0.00183787
-0.00183185
-0.00183015
-0.00171983
-0.00183747
-0.00169335
-0.00181602
-0.00168037
-0.00180053
-0.00183016
-0.00183617
-0.00182909
-0.00183116
-0.0018309
-0.00172519
-0.0018242
-0.00182879
-0.00173323
-0.0018201
-0.00182009
-0.00182988
-0.00182158
-0.00182589
-0.00183471
-0.00182865
-0.00182243
-0.00181956
-0.00177597
-0.00183917
-0.00182954
-0.00183562
-0.00164375
-0.00182879
-0.00183146
-0.00178091
-0.00182474
-0.00179219
-0.00181967
-0.00183559
-0.00171254
-0.00171992
-0.00177205
-0.00180609
-0.00182922
-0.00183478
-0.00174672
-0.00178212
-0.00180649
-0.00182784
-0.00183019
-0.00183551
-0.00175988
-0.00183331
-0.00180731
-0.00182613
-0.00180129
-0.00175093
-0.00183484
-0.00162971
-0.00182969
-0.00183134
-0.00182956
-0.0017255
-0.00165157
-0.00179519
-0.0017902
-0.00162151
-0.00168946
-0.00164127
-0.00182963
-0.00176405
-0.00181236
-0.00183762
-0.00171087
-0.00183301
-0.00183939
-0.00181926
-0.00182156
-0.001777
-0.00165234
-0.00183709
-0.00180165
-0.00183953
-0.00182972
-0.00183663
-0.00178987
-0.0018227
-0.00168955
-0.00176514
-0.00183803
-0.00180163
-0.00177466
-0.00172055
-0.0018304
-0.0018105
-0.00182913
-0.00182973
-0.00183419
-0.00176526
-0.00177995
-0.00163987
-0.00181107
-0.00184002
-0.00179854
-0.00174014
-0.00182924
-0.00181455
-0.00182012
-0.00182995
-0.00162645
-0.00183347
-0.00161049
-0.00182985
-0.00182671
-0.00182957
-0.00183424
-0.00182976
-0.00183518
-0.00174657
-0.00181399
-0.00182769
-0.00174283
-0.00163011
-0.00182843
-0.00182939
-0.0018289
-0.00182996
-0.0018076
-0.00171611
-0.00176387
-0.00181317
-0.00172901
-0.00175641
-0.00183746
-0.00182692
-0.00176245
-0.001737
-0.0017166
-0.00182902
-0.00169234
-0.00172459
-0.00170924
-0.00183048
-0.00179415
-0.00169636
-0.00182925
-0.00182842
-0.00180976
-0.00183025
-0.00182949
-0.00183478
-0.00182427
-0.00181082
-0.00182659
-0.00182419
-0.00179225
-0.00168546
-0.00176118
-0.00182947
-0.00170661
-0.00180518
-0.00182249
-0.00182936
-0.00173869
-0.00176392
-0.00181045
-0.00178534
-0.00170294
-0.00182557
-0.00181728
-0.00181744
-0.00177783
-0.00181136
-0.00170238
-0.00176619
-0.00174937
-0.00183312
-0.00164561
-0.00182875
-0.00182992
-0.00183099
-0.00179119
-0.00183061
-0.0017485
-0.0017823
-0.00180224
-0.00178109
-0.00181561
-0.00183033
-0.00183045
-0.00178922
-0.00174128
-0.00183764
-0.00182064
-0.00166413
-0.0016579
-0.00182871
-0.00182778
-0.00182394
-0.0017483
-0.00183062
-0.00160521
-0.00174531
-0.00180304
-0.00183759
-0.00181847
-0.00169147
-0.00178576
-0.00182636
-0.00174075
-0.00183403
-0.00182898
-0.00183799
-0.00165959
-0.00183118
-0.0018275
-0.00174248
-0.00183196
-0.00179763
-0.00183332
-0.00172855
-0.00182122
-0.0017956
-0.00179456
-0.00183168
-0.00183472
-0.00176515
-0.0018268
-0.00182964
-0.00183256
-0.00182297
-0.00183925
-0.00175185
-0.00183005
-0.00183002
-0.00182604
-0.0018186
-0.00182179
-0.00178248
-0.00166542
-0.00165293
-0.00167672
-0.00183664
-0.0018292
-0.00175837
-0.00183006
-0.001806
-0.00183652
-0.00178815
-0.00176234
-0.00182864
-0.00183011
-0.00183003
-0.00166141
-0.00183173
-0.00176705
-0.00165456
-0.00183057
-0.00176333
-0.00183003
-0.00175763
-0.00182018
-0.00183298
-0.0017984
-0.00180938
-0.0018337
-0.00176779
-0.00182385
-0.00181159
-0.00183665
-0.00183063
-0.00178037
-0.00168434
-0.00178346
-0.00183154
-0.00181679
-0.00182799
-0.00180923
-0.00182968
-0.00161696
-0.0018296
-0.00183215
-0.00180975
-0.00182901
-0.00183657
-0.00180373
-0.00175601
-0.00176929
-0.00167898
-0.00182973
-0.00182947
-0.00183742
-0.00169175
-0.00183004
-0.00183039
-0.00182801
-0.00182927
-0.00184152
-0.0017242
-0.00169261
-0.00173795
-0.00182031
-0.001808
-0.00182887
-0.00180459
-0.00184153
-0.00181874
-0.00182533
-0.00182074
-0.00182265
-0.00180702
-0.0017538
-0.0018249
-0.00175526
-0.00176341
-0.0018029
-0.00163852
-0.00167628
-0.0017843
-0.00180658
-0.00182921
-0.00182985
-0.0017325
-0.00171159
-0.00179198
-0.00183168
-0.00183674
-0.00183191
-0.00183127
-0.00182877
-0.00183492
-0.00183148
-0.00182964
-0.00182749
-0.00179374
-0.00177226
-0.00168196
-0.00182967
-0.00176635
-0.0017324
-0.00178731
-0.00183817
-0.00181388
-0.00177726
-0.00178225
-0.00172302
-0.00179698
-0.00174729
-0.00180088
-0.00183317
-0.00182884
-0.00177293
-0.00182785
-0.00183438
-0.00182437
-0.00174424
-0.00165952
-0.00163449
-0.00183388
-0.00183087
-0.00183598
-0.00182942
-0.00182938
-0.00183063
-0.00182978
-0.00170396
-0.00177546
-0.00175904
-0.00182956
-0.00167181
-0.00183103
-0.00182987
-0.00181611
-0.00172019
-0.00175039
-0.00165003
-0.00161089
-0.00180093
-0.00183713
-0.00183664
-0.00176642
-0.00182559
-0.00169828
-0.00180435
-0.00183483
-0.00183845
-0.00181907
-0.00183791
-0.00183981
-0.0018366
-0.00173502
-0.0018382
-0.00179884
-0.00181247
-0.00183069
-0.00183993
-0.00168829
-0.00183001
-0.0017745
-0.00175289
-0.00176108
-0.00182305
-0.00183131
-0.00169348
-0.00163174
-0.00181673
-0.00173353
-0.00172855
-0.00182052
-0.00182927
-0.00178677
-0.00182051
-0.00175073
-0.00162307
-0.00183232
-0.00175647
-0.00182866
-0.0018039
-0.00172428
-0.00183078
-0.00182547
-0.0018312
-0.00182995
-0.00164644
-0.0016661
-0.00182475
-0.00183004
-0.00172633
-0.00183696
-0.00171417
-0.00173629
-0.00181161
-0.00165756
-0.00183047
-0.0016428
-0.00176873
-0.00183221
-0.00183353
-0.00182323
-0.00178987
-0.00170005
-0.00178339
-0.00180845
-0.0018303
-0.0018399
-0.00169715
-0.00179942
-0.00180462
-0.00176806
-0.00182345
-0.00182275
-0.00183233
-0.00183622
-0.00182417
-0.00182403
-0.00183313
-0.00183271
-0.00177617
-0.0018219
-0.00180781
-0.00178468
-0.00164748
-0.0017921
-0.0018308
-0.00183228
-0.00182387
-0.00182963
-0.00172843
-0.00182439
-0.00182407
-0.00182005
-0.00172831
-0.0018316
-0.00180646
-0.0018083
-0.00183212
-0.00181179
-0.00183119
-0.00179681
-0.00182969
-0.00167078
-0.00180029
-0.00179844
-0.00181319
-0.00168292
-0.00183032
-0.00182436
-0.00183178
-0.00170232
-0.00175196
-0.00169927
-0.00182844
-0.00174948
-0.00162211
-0.00183557
-0.00176147
-0.00183875
-0.00182406
-0.00181904
-0.0018209
-0.00173584
-0.00182339
-0.00183326
-0.00174849
-0.00167273
-0.00181103
-0.0017891
-0.00182944
-0.00183113
-0.00175096
-0.00163668
-0.00182925
-0.00177977
-0.00181758
-0.00173322
-0.00174779
-0.00175925
-0.00183014
-0.00181797
-0.00182064
-0.00183087
-0.00175104
-0.00182942
-0.0018338
-0.00179953
-0.00162531
-0.00183579
-0.00184082
-0.00162891
-0.00183057
-0.00173578
-0.00182107
-0.00170646
-0.00183203
-0.00183268
-0.00182898
-0.00182985
-0.0018325
-0.00182964
-0.00182626
-0.00180788
-0.00180846
-0.00178809
-0.00166121
-0.00180904
-0.00182958
-0.00182975
-0.00182394
-0.00179227
-0.00183715
-0.00164853
-0.00183072
-0.00183638
-0.00183223
-0.00178437
-0.00183861
-0.00174551
-0.00171572
-0.0016115
-0.00173723
-0.00177358
-0.00183506
-0.00183022
-0.00182077
-0.00163184
-0.0017972
-0.00174595
-0.00183341
-0.00183204
-0.0018302
-0.00181845
-0.00182796
-0.00183638
-0.00182931
-0.00183245
-0.00183966
-0.00162968
-0.00182878
-0.00182729
-0.00182487
-0.00169085
-0.00182976
-0.00182711
-0.00179144
-0.00166393
-0.00183699
-0.00182924
-0.00182978
-0.00182466
-0.00183283
-0.00183059
-0.00183327
-0.00182812
-0.00183105
-0.00183
-0.00183068
-0.0018298
-0.00172202
-0.00183533
-0.00183246
-0.0016231
-0.00182587
-0.00180948
-0.00170589
-0.0018269
-0.00174124
-0.00181333
-0.00174199
-0.00177858
-0.00183102
-0.00182221
-0.00182997
-0.00182134
-0.00179962
-0.0016858
-0.00166912
-0.00183087
-0.0017073
-0.00178718
-0.00181737
-0.00183761
-0.00183016
-0.00178036
-0.00183079
-0.00177065
-0.00182892
-0.00172404
-0.00182604
-0.00174049
-0.00182534
-0.00183593
-0.00179803
-0.00182188
-0.00182243
-0.00182139
-0.00182302
-0.00177794
-0.00179483
-0.00182364
-0.00182387
-0.00182946
-0.00165089
-0.00180501
-0.00168186
-0.00166547
-0.00183084
-0.00183421
-0.00183375
-0.00170382
-0.00182399
-0.00179292
-0.00167863
-0.00183009
-0.0018321
-0.00178035
-0.00181619
-0.00182951
-0.00177018
-0.00183028
-0.00178208
-0.00181993
-0.00183509
-0.00183648
-0.0018374
-0.00180254
-0.00183526
-0.00182602
-0.0018336
-0.00184017
-0.00182868
-0.00183699
-0.00179636
-0.00169628
-0.00181994
-0.00182901
-0.00179794
-0.00183408
-0.00173677
-0.00167193
-0.00183317
-0.00181446
-0.0018309
-0.00182914
-0.00181935
-0.0018303
-0.00183087
-0.00182987
-0.00177084
-0.00164796
-0.00183166
-0.0018322
-0.00167468
-0.00182828
-0.00183108
-0.00172039
-0.00181665
-0.0018125
-0.00181861
-0.00178324
-0.00182135
-0.00178102
-0.00178915
-0.00183577
-0.00183654
-0.00183332
-0.00182832
-0.00178243
-0.00173268
-0.00182611
-0.00179675
-0.00175702
-0.00174459
-0.00183048
-0.00167944
-0.00182785
-0.00183222
-0.0017772
-0.00169459
-0.00182959
-0.00165522
-0.00182998
-0.00183094
-0.00182972
-0.0017204
-0.00183371
-0.00181751
-0.00183055
-0.00181326
-0.00182953
-0.00173354
-0.00182977
-0.00183002
-0.00182981
-0.00183349
-0.00183491
-0.00182201
-0.00177279
-0.0017156
-0.00182996
-0.00182037
-0.00183426
-0.00178731
-0.0016605
-0.00164746
-0.0018262
-0.00182992
-0.00183131
-0.00164113
-0.00183093
-0.00181094
-0.00181496
-0.00182306
-0.0018257
-0.00183776
-0.00180288
-0.00183713
-0.00183048
-0.00177855
-0.00182726
-0.00183046
-0.00183214
-0.00183245
-0.00181067
-0.00165034
-0.00183259
-0.00183407
-0.0018348
-0.00183286
-0.00179826
-0.0018236
-0.00183979
-0.00183202
-0.0017918
-0.00178458
-0.00183059
-0.00167018
-0.00175343
-0.00180983
-0.00183227
-0.00181197
-0.0018012
-0.00180406
-0.00180214
-0.0018306
-0.00182843
-0.0017336
-0.00183645
-0.00170169
-0.00178829
-0.00183017
-0.00182715
-0.00183033
-0.00183324
-0.00183251
-0.00183278
-0.00181967
-0.00173247
-0.00178955
-0.00182876
-0.00183577
-0.00182798
-0.00181634
-0.00183275
-0.00182882
-0.00162853
-0.00174681
-0.00183419
-0.00182017
-0.00163146
-0.00172036
-0.00183052
-0.00183629
-0.00182728
-0.00183283
-0.00168318
-0.00183111
-0.00183635
-0.0017975
-0.00182657
-0.0018108
-0.00175459
-0.00181929
-0.00170957
-0.00183694
-0.00182831
-0.00183357
-0.00182008
-0.00182959
-0.00183262
-0.00181511
-0.001832
-0.00181321
-0.00182833
-0.00183521
-0.00180046
-0.00178467
-0.00169705
-0.00182927
-0.0017655
-0.00177477
-0.00180373
-0.00183066
-0.00174267
-0.00183138
-0.00182207
-0.00165622
-0.00181619
-0.00183658
-0.00183111
-0.00183252
-0.00174357
-0.00183103
-0.00183314
-0.00182524
-0.00169343
-0.00183921
-0.00182746
-0.00180618
-0.00179806
-0.00168237
-0.00180221
-0.00183003
-0.00171671
-0.00183278
-0.00183015
-0.0018279
-0.00180898
-0.00181871
-0.00182823
-0.00182513
-0.00183338
-0.0017519
-0.00164803
-0.00179607
-0.00166443
-0.0018327
-0.00174647
-0.00181472
-0.00182538
-0.00180397
-0.00168938
-0.00181304
-0.00182117
-0.00177602
-0.00180241
-0.00183341
-0.00182291
-0.00183123
-0.00183067
-0.00177113
-0.00183369
-0.00169053
-0.00183069
-0.00183047
-0.00182968
-0.00183713
-0.00183006
-0.00182939
-0.00170498
-0.0017375
-0.00182991
-0.00183215
-0.00183308
-0.0018316
-0.00183354
-0.00181721
-0.0017885
-0.00178921
-0.00180587
-0.00181922
-0.00183326
-0.00168259
-0.00169934
-0.00171
-0.00183177
-0.00176435
-0.00181808
-0.00181257
-0.00182993
-0.00176103
-0.00181795
-0.00175861
-0.00182894
-0.00183047
-0.00178197
-0.00183962
-0.00183097
-0.00183057
-0.00182951
-0.00175792
-0.00164876
-0.00174123
-0.0018313
-0.00183007
-0.0018317
-0.00181558
-0.00181215
-0.00171573
-0.00176004
-0.00182664
-0.0018359
-0.00183186
-0.00183353
-0.0017062
-0.0018139
-0.00183208
-0.00183316
-0.00179753
-0.00182728
-0.00183422
-0.00177753
-0.00182987
-0.00182861
-0.00176754
-0.00183931
-0.00167424
-0.00183329
-0.00182479
-0.00178777
-0.00182681
-0.00183182
-0.00180351
-0.00170234
-0.00183051
-0.00183008
-0.00182851
-0.00183023
-0.00183135
-0.00183116
-0.00182109
-0.00178646
-0.00168956
-0.00182715
-0.00181352
-0.00181481
-0.00183624
-0.00177598
-0.00171543
-0.00183063
-0.00181267
-0.00165283
-0.00182484
-0.00182983
-0.00183111
-0.0016207
-0.00182978
-0.00182982
-0.00183252
-0.00183382
-0.00183192
-0.00183374
-0.00179382
-0.00181644
-0.00181829
-0.00183092
-0.00181734
-0.00175693
-0.00183239
-0.00181851
-0.0018148
-0.00183719
-0.00180998
-0.00183936
-0.00183412
-0.00179268
-0.00175364
-0.0017583
-0.00183007
-0.00180538
-0.00181783
-0.00174151
-0.00167432
-0.00183737
-0.00181149
-0.00183173
-0.00183006
-0.00181887
-0.00183535
-0.0018235
-0.00181943
-0.00183026
-0.00182726
-0.00179542
-0.001836
-0.00183888
-0.00167056
-0.00183777
-0.00183047
-0.00183095
-0.00183605
-0.00183091
-0.00180101
-0.00183574
-0.00181293
-0.00176187
-0.00183048
-0.00183998
-0.00180656
-0.00183271
-0.00181802
-0.00174666
-0.00183274
-0.00183472
-0.00182182
-0.00178432
-0.00179353
-0.00182995
-0.00183165
-0.00183074
-0.00182716
-0.00183379
-0.00170693
-0.00183657
-0.00182453
-0.00182969
-0.00179208
-0.0018294
-0.0018384
-0.00179496
-0.00183694
-0.00183574
-0.00179632
-0.00183134
-0.00169105
-0.00182541
-0.0017933
-0.00183129
-0.00183266
-0.0018351
-0.00178607
-0.0018352
-0.00183366
-0.00182008
-0.00182991
-0.00184143
-0.0018268
-0.00176273
-0.00182824
-0.00183354
-0.00183178
-0.00179613
-0.00173389
-0.00183158
-0.00181557
-0.00183149
-0.00182427
-0.00183603
-0.00183472
-0.00181813
-0.00180521
-0.00182108
-0.00183709
-0.00182579
-0.00182857
-0.00176961
-0.00183338
-0.00179376
-0.00183005
-0.00183231
-0.00182929
-0.00176275
-0.00182896
-0.00183137
-0.00183067
-0.0018196
-0.00172795
-0.00183217
-0.00175213
-0.00177024
-0.00164077
-0.00182755
-0.00183949
-0.00183171
-0.00182886
-0.0017731
-0.00183302
-0.00182286
-0.00171559
-0.0018295
-0.00183089
-0.00183025
-0.00171536
-0.00183143
-0.00182895
-0.00171088
-0.00165199
-0.00183903
-0.00183895
-0.00182983
-0.00183209
-0.00183398
-0.00164218
-0.00183096
-0.00183118
-0.00179956
-0.00183115
-0.00179899
-0.00183605
-0.00183082
-0.00180846
-0.00171163
-0.0018385
-0.00172991
-0.00178339
-0.00183004
-0.00183029
-0.00182915
-0.00183688
-0.00183682
-0.00173383
-0.00175716
-0.00183031
-0.00183036
-0.00183258
-0.00183
-0.00180892
-0.00181874
-0.00168425
-0.00183371
-0.00183022
-0.00181618
-0.00172622
-0.00182929
-0.00183181
-0.00183342
-0.00183399
-0.00183108
-0.00183169
-0.00183045
-0.00182428
-0.00183006
-0.00183162
-0.00183013
-0.00173728
-0.0017518
-0.00183456
-0.00183471
-0.00182011
-0.00182364
-0.00175566
-0.00183152
-0.00183089
-0.0018303
-0.00176156
-0.00183068
-0.00177586
-0.0018291
-0.00177085
-0.00182899
-0.00183225
-0.0018247
-0.00183223
-0.00182282
-0.00162651
-0.00181454
-0.0017379
-0.00183357
-0.00180717
-0.00179076
-0.00183147
-0.00178595
-0.00183107
-0.00171843
-0.00183226
-0.00180453
-0.00181339
-0.00181921
-0.00183596
-0.00183234
-0.00180742
-0.00183134
-0.00178993
-0.00182999
-0.00180508
-0.00176762
-0.00183932
-0.00171551
-0.00170764
-0.00177027
-0.00167127
-0.0017737
-0.0018185
-0.00183659
-0.00182851
-0.00183177
-0.00183034
-0.00181265
-0.00182754
-0.00164446
-0.00179282
-0.0018208
-0.0018299
-0.00182748
-0.00180689
-0.00183005
-0.00182737
-0.00183156
-0.00181992
-0.00178906
-0.00183355
-0.00166059
-0.00183082
-0.00183122
-0.00182775
-0.00183148
-0.00172429
-0.00184109
-0.00181808
-0.00183126
-0.00165123
-0.00178956
-0.00183184
-0.00183304
-0.00175514
-0.00180575
-0.00174811
-0.00179616
-0.00171652
-0.00178123
-0.00183356
-0.00178862
-0.00182996
-0.00173047
-0.00183128
-0.00175534
-0.00179083
-0.00182102
-0.00167254
-0.00183002
-0.00171802
-0.00182971
-0.00183147
-0.00168902
-0.00180967
-0.00181448
-0.00183971
-0.0016706
-0.00180591
-0.00182633
-0.00180063
-0.00183069
-0.0017912
-0.0018318
-0.00173372
-0.00170285
-0.00183466
-0.00178459
-0.00183152
-0.00182511
-0.00176337
-0.00182934
-0.00182571
-0.00182125
-0.0018071
-0.00183122
-0.00183557
-0.0018357
-0.00182534
-0.00183605
-0.0018303
-0.00180413
-0.00183684
-0.0018306
-0.00183024
-0.00182445
-0.00172017
-0.00183155
-0.00171993
-0.00182724
-0.0017871
-0.00183202
-0.00183071
-0.00182964
-0.00183136
-0.00183381
-0.00183362
-0.00183438
-0.00181042
-0.0018234
-0.00183397
-0.00183438
-0.00169708
-0.00183025
-0.00183107
-0.00182067
-0.00182999
-0.00182148
-0.00181547
-0.0016441
-0.00183488
-0.00170739
-0.00181409
-0.00183288
-0.00171117
-0.00183282
-0.00182197
-0.00179729
-0.00172445
-0.00181652
-0.00173189
-0.00179126
-0.00171302
-0.00180352
-0.00183532
-0.00168091
-0.00182559
-0.00179108
-0.00183068
-0.00182979
-0.00182826
-0.00181572
-0.00182205
-0.00182635
-0.00183076
-0.00163278
-0.00183301
-0.00183807
-0.00183476
-0.00182779
-0.00182793
-0.00175484
-0.00173977
-0.00183061
-0.00182438
-0.00179352
-0.0018304
-0.00180809
-0.00183087
-0.00176544
-0.0018347
-0.00181596
-0.00183024
-0.00183152
-0.00177837
-0.00182734
-0.00180361
-0.0018328
-0.00183503
-0.00169836
-0.00174958
-0.00183075
-0.00177587
-0.00181292
-0.00166806
-0.00182423
-0.00181099
-0.001743
-0.00182983
-0.00183122
-0.00183313
-0.00183179
-0.00163875
-0.00183062
-0.00183203
-0.00180958
-0.00183346
-0.00176205
-0.0017474
-0.00176247
-0.00183406
-0.00183565
-0.00174164
-0.00182485
-0.00183583
-0.00171063
-0.00183649
-0.00183311
-0.0018329
-0.00181462
-0.00177408
-0.00177864
-0.00183568
-0.00183232
-0.00182631
-0.00176542
-0.00175064
-0.00182693
-0.00182939
-0.00182715
-0.00175868
-0.00182815
-0.00181073
-0.00172468
-0.0018369
-0.00180591
-0.00174467
-0.00183328
-0.00163449
-0.0018321
-0.00177962
-0.00183478
-0.00179537
-0.00180764
-0.00183063
-0.00180625
-0.00177001
-0.00175034
-0.00163705
-0.00174271
-0.00170556
-0.00182994
-0.00183496
-0.00183748
-0.00182959
-0.00182292
-0.00178631
-0.00183153
-0.00163805
-0.00168541
-0.00183084
-0.00180081
-0.00182278
-0.00183263
-0.00170238
-0.00182512
-0.00183048
-0.00174748
-0.00183199
-0.00176045
-0.00169048
-0.00183013
-0.00183041
-0.00182212
-0.0017296
-0.00183016
-0.00181136
-0.00181599
-0.00182822
-0.00179503
-0.00183986
-0.00183737
-0.0017857
-0.00171241
-0.00172665
-0.00182829
-0.00167709
-0.00170058
-0.00181046
-0.00181604
-0.0018392
-0.00166015
-0.00182518
-0.00181519
-0.00171952
-0.00183649
-0.00180604
-0.00181899
-0.00173324
-0.00181865
-0.00174494
-0.00168154
-0.00183489
-0.00159017
-0.00162393
-0.00183482
-0.00183586
-0.0018076
-0.00183039
-0.0016358
-0.00182089
-0.00176622
-0.00174449
-0.00181962
-0.00177437
-0.00173839
-0.00182101
-0.00183041
-0.00167921
-0.00182013
-0.00173099
-0.00181535
-0.00180998
-0.00177478
-0.00177691
-0.00183416
-0.00183729
-0.00169595
-0.00171703
-0.00183221
-0.00182198
-0.00179493
-0.00183123
-0.00183001
-0.0018309
-0.00183166
-0.00183481
-0.00183246
-0.0018301
-0.00179624
-0.0018347
-0.00182359
-0.00183404
-0.00183278
-0.0017727
-0.00181676
-0.00174018
-0.0017935
-0.00179992
-0.00171038
-0.00174273
-0.00182221
-0.00183039
-0.00182273
-0.00172582
-0.00180848
-0.00183299
-0.00181634
-0.00182114
-0.00181711
-0.00182928
-0.00166251
-0.00167566
-0.00165488
-0.0016547
-0.00182993
-0.00173465
-0.00180802
-0.00181444
-0.0018328
-0.00172267
-0.00175785
-0.00182886
-0.00170657
-0.00167812
-0.00183518
-0.00183546
-0.00181475
-0.00182405
-0.00164551
-0.00169742
-0.00182034
-0.00180362
-0.00178015
-0.00182647
-0.00177109
-0.00183028
-0.00166811
-0.00183324
-0.00175509
-0.00183174
-0.00183173
-0.00175011
-0.00183022
-0.00183127
-0.00163511
-0.00170352
-0.001834
-0.0018327
-0.00161019
-0.00183631
-0.00177638
-0.00175527
-0.0016642
-0.0017065
-0.00183486
-0.00183162
-0.00182662
-0.0018313
-0.00183575
-0.00182468
-0.00172602
-0.00178026
-0.00172629
-0.00182978
-0.00183345
-0.0016627
-0.00183025
-0.00168137
-0.00183205
-0.00183119
-0.00183196
-0.0018331
-0.00180204
-0.00183684
-0.00180478
-0.00164664
-0.00183554
-0.00183367
-0.00176924
-0.00172843
-0.00178709
-0.00182255
-0.00181239
-0.00181748
-0.00180711
-0.00183344
-0.00179029
-0.00181713
-0.00183225
-0.0018181
-0.00183426
-0.00182642
-0.00183188
-0.00183007
-0.0018322
-0.00161649
-0.00182185
-0.00182784
-0.00183104
-0.00182931
-0.00182435
-0.00179009
-0.00182568
-0.00169131
-0.00170453
-0.00183207
-0.00183713
-0.00180733
-0.00182532
-0.00183072
-0.00183497
-0.0018279
-0.00163985
-0.00172997
-0.00181371
-0.00180297
-0.00182277
-0.0018316
-0.00182855
-0.00175823
-0.00176782
-0.00183005
-0.00181203
-0.00169531
-0.0018333
-0.00176935
-0.00182962
-0.00168526
-0.00182413
-0.00182708
-0.00176373
-0.00180114
-0.00175178
-0.00181252
-0.00181584
-0.00174466
-0.00182454
-0.0018367
-0.00178899
-0.0018262
-0.00182292
-0.00183292
-0.00178414
-0.00183197
-0.00182542
-0.0016914
-0.00180783
-0.00170138
-0.00183403
-0.00182521
-0.00175327
-0.00178454
-0.00183052
-0.00183112
-0.00183969
-0.00176838
-0.00183054
-0.00182656
-0.00183223
-0.0018265
-0.00173967
-0.00181979
-0.00165514
-0.00183383
-0.00182342
-0.00183421
-0.00183104
-0.00179902
-0.00183024
-0.00177173
-0.0018313
-0.00183227
-0.00182798
-0.00180625
-0.0017599
-0.00182749
-0.00182916
-0.00176428
-0.00182811
-0.00181722
-0.0016134
-0.00182914
-0.00177798
-0.00162365
-0.00177959
-0.00180866
-0.00177098
-0.00179018
-0.0018107
-0.00182898
-0.00183459
-0.00183454
-0.00180238
-0.00182948
-0.00176739
-0.00167013
-0.00182798
-0.00183073
-0.00182994
-0.00182161
-0.00183138
-0.00181426
-0.0018296
-0.00171814
-0.00182658
-0.00182374
-0.00184034
-0.00178281
-0.00179462
-0.00178893
-0.00182818
-0.00183139
-0.00172621
-0.00182884
-0.00183414
-0.00181823
-0.00178565
-0.00177284
-0.00180204
-0.00183906
-0.00183246
-0.00173699
-0.00179775
-0.00170053
-0.00182606
-0.00182676
-0.00163249
-0.00164298
-0.0018184
-0.00177034
-0.00178614
-0.0017693
-0.00181134
-0.001834
-0.0017571
-0.00182886
-0.00177874
-0.00176278
-0.00174735
-0.00182908
-0.00173991
-0.00181555
-0.00173982
-0.00169428
-0.00178348