/*--------------------------------*- C++ -*----------------------------------*\
| =========                 |                                                 |
| \\      /  F ield         | OpenFOAM: The Open Source CFD Toolbox           |
|  \\    /   O peration     | Version:  dev                                   |
|   \\  /    A nd           | Web:      www.OpenFOAM.org                      |
|    \\/     M anipulation  |                                                 |
\*---------------------------------------------------------------------------*/
FoamFile
{
    version     2.0;
    format      ascii;
    class       volScalarField;
    location    "0.260000";
    object      k;
}
// * * * * * * * * * * * * * * * * * * * * * * * * * * * * * * * * * * * * * //

dimensions      [0 2 -2 0 0 0 0];

internalField   nonuniform List<scalar> 
87727
(
0.00762201
0.00762196
0.00762191
0.0076269
0.00762226
0.00762786
0.00763431
0.00763919
0.00763856
0.00763693
0.00764015
0.00764011
0.00763713
0.00764888
0.00763815
0.00763763
0.00763958
0.00763828
0.00764159
0.0076369
0.00764046
0.00763817
0.00763796
0.00763919
0.00763565
0.00763512
0.00763807
0.00763676
0.00763237
0.00763449
0.00763378
0.00763686
0.00763374
0.00763825
0.00763482
0.00763435
0.00763747
0.00763715
0.00763803
0.00762206
0.00763766
0.00763756
0.00763385
0.00763705
0.00762697
0.00763762
0.00763021
0.00762961
0.00763063
0.00763894
0.00763389
0.00763427
0.00762699
0.00762207
0.00763727
0.00763736
0.00763787
0.00763101
0.00762797
0.00762336
0.00762445
0.0076223
0.00762235
0.00762974
0.00762202
0.00762192
0.00762263
0.00762891
0.00762226
0.00762195
0.00762226
0.00762394
0.00762893
0.00762196
0.00762202
0.007622
0.00762196
0.00762203
0.00762233
0.00762851
0.00762195
0.00762201
0.00762202
0.00763416
0.00763459
0.00762925
0.00762201
0.00762705
0.007622
0.00762194
0.00762766
0.00762712
0.00763806
0.00763373
0.0076382
0.00763776
0.00762189
0.00762396
0.00763895
0.00762213
0.00762195
0.00762697
0.00763466
0.00763119
0.007622
0.00762196
0.00763056
0.00763829
0.00762607
0.00763829
0.0076378
0.00763688
0.00763374
0.0076221
0.0076277
0.0076348
0.00762189
0.00763992
0.00762195
0.00762709
0.00762579
0.00762802
0.00764008
0.00762195
0.00762455
0.00763094
0.00763753
0.00762196
0.00763381
0.0076343
0.00762718
0.00763312
0.00763975
0.00763314
0.00762462
0.00763592
0.00762718
0.00763784
0.00763826
0.00762762
0.00763406
0.00763046
0.00762708
0.00763829
0.00763223
0.00762201
0.00763155
0.00763824
0.00763362
0.00763375
0.00762839
0.00762409
0.00762714
0.00762204
0.00763815
0.00762654
0.00762232
0.00763145
0.00762301
0.00763495
0.00762705
0.00764368
0.00763854
0.00763805
0.00762589
0.00762779
0.00762199
0.00762198
0.00762205
0.00762203
0.00762196
0.00762218
0.00762216
0.00762652
0.007622
0.00763785
0.0076222
0.00762224
0.00763796
0.00763777
0.00763758
0.00763761
0.00762875
0.00762206
0.00763756
0.00763756
0.00762725
0.00762227
0.00763414
0.00762215
0.00762746
0.00762194
0.0076378
0.00763141
0.00762197
0.00762196
0.00762197
0.00763466
0.00762203
0.00762202
0.00762192
0.00762628
0.00762787
0.00763445
0.00762196
0.0076377
0.00763765
0.00762196
0.00762201
0.00762201
0.00762255
0.00762258
0.00762204
0.00762201
0.00762825
0.0076282
0.00762206
0.00762192
0.00762201
0.00763567
0.00763749
0.00762191
0.00762728
0.00762201
0.00763382
0.00762202
0.00763406
0.00762743
0.0076239
0.00763836
0.00762198
0.00762188
0.00762191
0.00762772
0.00763532
0.00762684
0.0076308
0.00762298
0.00762282
0.00762695
0.00762192
0.00763461
0.00762533
0.00762536
0.00763884
0.00762301
0.00762297
0.00762608
0.00762193
0.007622
0.00762402
0.00763736
0.00763943
0.00763799
0.00763377
0.00763167
0.00763982
0.00762776
0.00762655
0.00763825
0.00762855
0.00762203
0.00763459
0.00762456
0.00762188
0.00763382
0.00763404
0.00763503
0.00764008
0.00763134
0.00762757
0.00762719
0.00762695
0.00762446
0.00762364
0.00762401
0.00763189
0.00763518
0.00762746
0.00762711
0.00764015
0.00762732
0.0076314
0.00762313
0.0076399
0.00763869
0.00762211
0.0076219
0.00762203
0.00762522
0.00763936
0.00763372
0.00763392
0.00763151
0.00763384
0.00762993
0.00762472
0.00762216
0.00762652
0.00762233
0.00763875
0.00762473
0.00762913
0.0076391
0.00762819
0.00762456
0.00762202
0.00762374
0.00762212
0.00762234
0.00762647
0.00763935
0.00762681
0.00762373
0.00763967
0.00762203
0.00763751
0.00763183
0.00763236
0.00762788
0.00762266
0.0076271
0.0076364
0.00763161
0.00762444
0.00762196
0.00763313
0.00763377
0.007629
0.00762205
0.00763496
0.00763173
0.00764006
0.00762196
0.00764005
0.00763762
0.00762193
0.00762207
0.00762202
0.00763148
0.00764011
0.007622
0.00763198
0.00763374
0.00764013
0.007622
0.00762197
0.00762521
0.00762744
0.00762192
0.00762229
0.00762531
0.00762956
0.00762196
0.00762192
0.00762232
0.00764007
0.00762193
0.00762396
0.00763234
0.00763666
0.00763393
0.00762204
0.00762236
0.00763374
0.00762198
0.00762662
0.00762191
0.00762192
0.00763949
0.00762977
0.00763961
0.00762929
0.00763081
0.00763677
0.00762629
0.00762563
0.00763259
0.00762494
0.00763666
0.00762199
0.00763126
0.0076302
0.00762735
0.00764575
0.007639
0.00763703
0.00762439
0.0076246
0.007622
0.00763382
0.00762196
0.00762459
0.00762502
0.00763362
0.00762369
0.00762727
0.00762279
0.00762995
0.00762206
0.00762243
0.00762228
0.00762207
0.00762199
0.00762198
0.00762454
0.00762193
0.00762757
0.00763702
0.00762216
0.00762702
0.00762652
0.00762435
0.00762368
0.00763347
0.00762368
0.00762211
0.00762246
0.00762392
0.00762468
0.00762203
0.00762522
0.00762459
0.00762229
0.00762228
0.00762737
0.00763006
0.0076231
0.00763391
0.007622
0.00762899
0.0076344
0.00763657
0.00762463
0.0076262
0.00762207
0.00763681
0.00763175
0.00762621
0.00763019
0.0076361
0.00762465
0.0076265
0.00762228
0.00762569
0.00762227
0.00762199
0.00762914
0.00762558
0.00763837
0.00763576
0.00762573
0.00762193
0.00762201
0.00762476
0.00762391
0.00762208
0.00763526
0.00762205
0.00762226
0.00763527
0.00762201
0.00763797
0.007628
0.00762997
0.00763752
0.00763627
0.00762201
0.0076276
0.00762467
0.00762339
0.00763582
0.00763262
0.00762554
0.00762193
0.00762529
0.00762202
0.00762195
0.00762638
0.00762193
0.00762196
0.00762833
0.00762207
0.00763395
0.00763729
0.0076262
0.00762192
0.00763477
0.00762458
0.00762706
0.00763422
0.00763454
0.00762207
0.00763201
0.00762376
0.00763498
0.00762192
0.00762204
0.00762893
0.0076245
0.00762198
0.00762216
0.00762584
0.00763407
0.00762212
0.00763367
0.00762222
0.00762593
0.00762404
0.00762218
0.00762205
0.00762564
0.00763667
0.00762544
0.00762655
0.007622
0.00762546
0.00763183
0.00762368
0.00762218
0.00763004
0.00762639
0.00762203
0.00762657
0.00762624
0.00763096
0.00762467
0.00762866
0.0076299
0.0076221
0.00762202
0.00762731
0.00762376
0.00762463
0.00762237
0.00762198
0.0076296
0.00763503
0.00762724
0.00762662
0.00762527
0.00762562
0.00763292
0.00762631
0.00762564
0.00762199
0.00763247
0.00762196
0.00763185
0.00762247
0.00762325
0.00763483
0.00762319
0.00762823
0.00762436
0.00763101
0.00762231
0.00762672
0.00762718
0.00762195
0.007624
0.00763481
0.00763394
0.00763502
0.00762232
0.00763015
0.00763288
0.00762212
0.00763514
0.0076223
0.00763699
0.00762702
0.00763221
0.00762198
0.00763025
0.00762823
0.00762358
0.00762203
0.00762809
0.00762545
0.00762938
0.0076256
0.00762954
0.00762537
0.00762835
0.0076223
0.00763746
0.00762368
0.00762231
0.00763539
0.00763419
0.00762393
0.00763039
0.00762878
0.00762541
0.0076247
0.00762463
0.00763066
0.00762664
0.00763107
0.00762855
0.00762221
0.0076223
0.00763379
0.00763479
0.00762197
0.00762227
0.007622
0.00763654
0.0076263
0.00762658
0.00762814
0.00762214
0.00762372
0.0076223
0.00762722
0.00762793
0.007622
0.00762467
0.00762558
0.0076248
0.00762604
0.00762397
0.00762475
0.00762239
0.00763205
0.00762833
0.00762621
0.0076221
0.00762692
0.00762219
0.00762215
0.00762466
0.00763691
0.00763204
0.00763388
0.00762846
0.00762237
0.00762679
0.00763356
0.00762542
0.00762535
0.00763257
0.00763443
0.00762233
0.00763316
0.0076283
0.00762907
0.00763471
0.00763416
0.00762547
0.00762205
0.0076279
0.00762201
0.0076223
0.00762228
0.00763355
0.00762217
0.00762813
0.00762205
0.00762626
0.00762199
0.00762815
0.00762545
0.00762203
0.00762221
0.00762205
0.0076324
0.00762193
0.00763023
0.00763115
0.00763412
0.00762277
0.007622
0.00762195
0.00762368
0.0076222
0.0076222
0.00762974
0.00762568
0.00762468
0.00763416
0.00762941
0.00763177
0.00762219
0.0076287
0.00762528
0.00762196
0.00762386
0.00762864
0.00763068
0.00762976
0.00762196
0.0076267
0.00762214
0.00763465
0.00762369
0.00762221
0.00763006
0.00762549
0.00763452
0.00762891
0.00762215
0.00762461
0.00763388
0.00762982
0.00763395
0.00762524
0.00762214
0.00763623
0.00763104
0.0076291
0.00762665
0.00762211
0.00762219
0.00762306
0.00762231
0.00762736
0.00762842
0.00763031
0.00763611
0.00762215
0.00763063
0.00762228
0.007622
0.0076239
0.00763672
0.0076375
0.00762891
0.00763324
0.00763295
0.00763785
0.00763204
0.00762373
0.00762997
0.00763224
0.00762204
0.00763386
0.00762234
0.00762201
0.00762885
0.00763036
0.00763508
0.00763475
0.00762193
0.00762648
0.00762198
0.00762521
0.00762193
0.00762957
0.0076285
0.00763385
0.00763431
0.00762205
0.00762278
0.00762922
0.00763483
0.00762229
0.00762673
0.00762372
0.00762207
0.00762196
0.00763033
0.00763306
0.00763717
0.00762249
0.007622
0.00763319
0.00763088
0.00762516
0.00762806
0.00762867
0.00762467
0.0076367
0.00762231
0.0076344
0.00762382
0.00762948
0.00762209
0.00762222
0.00762376
0.00762215
0.00762691
0.00763042
0.00762532
0.00762381
0.00762882
0.00762226
0.00762292
0.00762435
0.00762381
0.00762266
0.00763485
0.00763396
0.00763149
0.00763013
0.00763399
0.00762206
0.00762227
0.00762318
0.00763392
0.00763685
0.00762405
0.00763415
0.00763414
0.0076278
0.00762222
0.0076259
0.00763429
0.0076247
0.00762226
0.00762624
0.00762218
0.00762405
0.00762217
0.00762441
0.00762628
0.00762813
0.00762228
0.00762889
0.00763774
0.00763047
0.00762371
0.00762863
0.00762505
0.00763024
0.00762372
0.00762879
0.00762324
0.00762246
0.00763097
0.00763714
0.00762558
0.00762688
0.00762913
0.00763371
0.00762602
0.00762471
0.00762776
0.00763211
0.00762195
0.0076373
0.00762377
0.00762649
0.00762207
0.00762336
0.0076222
0.00762751
0.00763386
0.00762261
0.00762614
0.00762236
0.0076227
0.0076223
0.00762284
0.00762373
0.00762203
0.00762885
0.00763192
0.00763511
0.00762639
0.00762815
0.00762492
0.00762415
0.00762209
0.00763582
0.00763474
0.00762269
0.00762198
0.00763085
0.00763522
0.00762903
0.00762814
0.00763229
0.00762223
0.00762535
0.00762202
0.00762698
0.00762227
0.00762631
0.00763647
0.00762235
0.00762319
0.0076223
0.00763393
0.00762497
0.00763298
0.00762776
0.00762226
0.00762217
0.00762728
0.00762431
0.00762205
0.00762234
0.00762749
0.00762198
0.00763012
0.00762544
0.00762447
0.0076254
0.00762906
0.00762581
0.00762286
0.00763756
0.00763398
0.00763253
0.00762208
0.00762435
0.00762677
0.00762485
0.00762578
0.00762207
0.0076279
0.00763159
0.00762798
0.007622
0.0076223
0.00763771
0.00762234
0.00762337
0.00763496
0.00762473
0.0076335
0.00762474
0.00763445
0.0076288
0.00762219
0.00762276
0.00762465
0.00762195
0.0076231
0.00762736
0.0076316
0.00762209
0.007622
0.00762669
0.00763413
0.00762736
0.00762206
0.00762628
0.00762534
0.0076273
0.00762472
0.00763546
0.00762285
0.00762373
0.00762832
0.00762378
0.00762208
0.00762552
0.00763008
0.00763028
0.00763503
0.00762198
0.00762235
0.00762203
0.00762512
0.00762449
0.00762206
0.00762388
0.00762406
0.00762191
0.00763236
0.00762948
0.00762965
0.00762231
0.00763199
0.00762466
0.00763175
0.0076219
0.00762573
0.00762851
0.00762652
0.00762577
0.00762263
0.00763198
0.00762562
0.00762947
0.00762633
0.00763292
0.00763436
0.00763416
0.00763351
0.0076226
0.00762392
0.00762396
0.00763236
0.00763491
0.00763257
0.00762207
0.00762209
0.00762201
0.00762221
0.00762492
0.00762206
0.00762221
0.00762393
0.00762276
0.00763067
0.00763413
0.0076338
0.00762512
0.00763149
0.00762367
0.00762295
0.00762195
0.00763216
0.00762308
0.00762911
0.00762747
0.00762948
0.00762797
0.00762578
0.00762203
0.0076252
0.0076262
0.00762263
0.00762217
0.00762613
0.00763078
0.00763322
0.00763686
0.00762223
0.00762205
0.007622
0.00762392
0.0076222
0.00762205
0.00762222
0.00762482
0.00762752
0.00762951
0.00762228
0.0076299
0.00762479
0.00762228
0.00762237
0.00763414
0.00763382
0.00762741
0.00763186
0.0076263
0.00762206
0.00762208
0.00763554
0.00762826
0.0076373
0.00762919
0.00762215
0.00762202
0.00762958
0.00762197
0.00762199
0.00762208
0.00762451
0.00762203
0.00763038
0.00763065
0.0076237
0.00762199
0.00763414
0.00762411
0.00763137
0.0076262
0.00762315
0.00762491
0.00762487
0.00762526
0.00763293
0.00762999
0.00763479
0.00763078
0.0076245
0.0076237
0.0076296
0.00762234
0.00762859
0.0076332
0.00762246
0.00762686
0.00762226
0.00763248
0.00763392
0.00762227
0.00762438
0.007622
0.00762385
0.00763467
0.00763211
0.00762446
0.00762208
0.00762527
0.00762207
0.00762867
0.00763084
0.00762272
0.00763796
0.00762207
0.00763354
0.00763426
0.00762206
0.00762205
0.00762455
0.00762285
0.00762951
0.00762964
0.00762906
0.0076222
0.00762192
0.00762767
0.00762277
0.00762683
0.00762989
0.00762558
0.00762634
0.00762203
0.00762207
0.0076254
0.00762228
0.00762218
0.00762205
0.00762306
0.00762446
0.00762624
0.00762798
0.00763254
0.00762646
0.00762482
0.00762205
0.00762229
0.00762386
0.00763234
0.00762232
0.00762231
0.00762401
0.00762424
0.00762227
0.00762539
0.00762267
0.00762226
0.00762254
0.00762206
0.00762269
0.00762405
0.0076351
0.00762761
0.00762636
0.00762263
0.00763103
0.00762393
0.00762841
0.00762206
0.00763507
0.00762343
0.00762874
0.00762524
0.00762423
0.00763645
0.00762201
0.00763441
0.00762202
0.00762845
0.00762872
0.00762236
0.00762797
0.00762578
0.00762218
0.00763073
0.00763101
0.00762724
0.00762897
0.00762435
0.00762503
0.00762795
0.00763337
0.00762382
0.00762969
0.00762438
0.00763014
0.00763415
0.00762685
0.00762378
0.00762442
0.00762428
0.00762489
0.00762433
0.00762404
0.00762226
0.00762938
0.00763332
0.00762214
0.00762191
0.00763267
0.00762198
0.00762381
0.00762921
0.00763418
0.00762203
0.0076272
0.00762401
0.00762388
0.00762227
0.00762437
0.00762549
0.00762839
0.00762549
0.00762357
0.00763369
0.00762269
0.00762407
0.00762231
0.00762558
0.00762453
0.00762207
0.00763746
0.00762222
0.0076221
0.00762582
0.00763001
0.00762194
0.00763392
0.00763414
0.00763466
0.00763014
0.00762716
0.00762217
0.00762504
0.00762465
0.00763669
0.00763225
0.00762966
0.00762214
0.00762723
0.00762225
0.00762606
0.0076279
0.00762204
0.00762368
0.00762245
0.00762193
0.00763394
0.00763042
0.00762228
0.00762493
0.00763299
0.0076239
0.00762228
0.00762785
0.00763414
0.00762208
0.00762466
0.00762387
0.00762554
0.00762248
0.00762501
0.00762238
0.00762659
0.00762221
0.00762455
0.0076223
0.00762441
0.0076288
0.00762207
0.00762195
0.00762998
0.00762431
0.00762459
0.00762492
0.0076255
0.00763484
0.0076295
0.00762961
0.0076312
0.00762555
0.00762544
0.00762461
0.007626
0.00762699
0.00763013
0.00763197
0.00762682
0.00762556
0.00762652
0.00762574
0.00762202
0.00762515
0.00762345
0.00762495
0.0076293
0.00762461
0.00762413
0.00762419
0.00762631
0.00762553
0.00762209
0.00763288
0.00762241
0.00762243
0.0076224
0.00762243
0.00762706
0.00762638
0.00762244
0.00762229
0.00762384
0.00762751
0.00763277
0.00763749
0.00763056
0.00762493
0.00762227
0.00762205
0.00762955
0.00762826
0.00762666
0.00763112
0.00762406
0.00762234
0.00762312
0.00762434
0.00762368
0.00762577
0.00762388
0.00762696
0.00762546
0.00762201
0.00762208
0.00762204
0.00762266
0.00762205
0.00762543
0.00762228
0.00762191
0.00762525
0.00762196
0.00763326
0.00762949
0.00762611
0.00762226
0.00762974
0.00762225
0.00762662
0.0076342
0.00762238
0.00762418
0.0076223
0.00762232
0.00762451
0.00762479
0.00762505
0.00762392
0.00762766
0.00763378
0.00762221
0.00762222
0.00763125
0.00762417
0.00762663
0.00762979
0.00762241
0.00762261
0.00762398
0.00762291
0.00762566
0.00762802
0.00762566
0.00762213
0.0076221
0.00762225
0.00762425
0.00762314
0.00763078
0.00762405
0.00762455
0.00763056
0.00762388
0.00762481
0.00762656
0.00762465
0.00762597
0.00763015
0.0076329
0.00762467
0.00763147
0.00762383
0.0076223
0.00762233
0.00762691
0.00762205
0.00762459
0.00762488
0.00762458
0.00762226
0.00762463
0.00762227
0.00762227
0.00762273
0.00762216
0.00762217
0.00762461
0.00763339
0.0076298
0.00762396
0.00762597
0.00762227
0.0076334
0.00762717
0.00763092
0.0076225
0.00762419
0.00762495
0.00763445
0.00762233
0.00762921
0.00762488
0.007652
0.007626
0.00762204
0.00762749
0.00762207
0.00762227
0.00762916
0.00762515
0.00762399
0.0076224
0.00762245
0.00762271
0.00763265
0.00762249
0.00762208
0.00762206
0.00762245
0.0076288
0.00762847
0.00762199
0.00762674
0.00762303
0.00762319
0.00762398
0.00762637
0.00762689
0.0076227
0.00762211
0.00762895
0.00762633
0.00762642
0.00762329
0.00762388
0.00762435
0.00762637
0.00762199
0.00763388
0.00763088
0.00762228
0.00762802
0.00762261
0.00762206
0.00762222
0.00762246
0.00762426
0.00762666
0.00762676
0.00762424
0.00762214
0.00762401
0.00762613
0.00762206
0.00762252
0.00763058
0.00762562
0.00762228
0.00762502
0.00762901
0.00762781
0.00762504
0.00762209
0.00762531
0.00762237
0.00762662
0.0076237
0.00762201
0.00762273
0.00762471
0.00763088
0.0076279
0.00762426
0.00763035
0.00762209
0.00762252
0.00762207
0.00762445
0.00762434
0.00762205
0.00762643
0.00762227
0.00762491
0.00762404
0.00762204
0.00762962
0.00762449
0.00763024
0.00762226
0.00762639
0.00762334
0.00762272
0.00762221
0.00762875
0.00762254
0.00762577
0.00763393
0.0076246
0.00762205
0.00762256
0.00762244
0.00762797
0.00762231
0.00762222
0.00762233
0.00763385
0.007622
0.00762253
0.0076264
0.00762635
0.00763012
0.00762692
0.007624
0.00762778
0.00762223
0.00762388
0.0076223
0.00763114
0.00762546
0.00762231
0.0076234
0.00762225
0.00762748
0.0076317
0.00762659
0.00762959
0.00762203
0.00762402
0.00762266
0.00762818
0.00762543
0.00762947
0.00762813
0.00762871
0.00762674
0.0076228
0.00762229
0.00764134
0.00762258
0.00762195
0.00762331
0.00762229
0.00763115
0.00762229
0.00762233
0.00762472
0.00762207
0.00762267
0.00762241
0.00763036
0.00762751
0.00762421
0.00762202
0.00762226
0.00762233
0.00762215
0.00762246
0.00762656
0.00763269
0.00762627
0.00762445
0.00762226
0.00762595
0.00763129
0.00762561
0.00762222
0.00762557
0.00762439
0.00762275
0.00762433
0.00762675
0.00762979
0.00762382
0.00762231
0.00762398
0.00762352
0.007622
0.00762222
0.00762398
0.00762389
0.00762542
0.00763485
0.00762753
0.00762223
0.00762399
0.00762235
0.00762909
0.00762659
0.00762747
0.00763005
0.00762537
0.00762212
0.00762685
0.00762215
0.00763388
0.00762266
0.00762694
0.007622
0.00762769
0.00762535
0.007622
0.00762339
0.00762405
0.00762459
0.00762667
0.00762198
0.00763366
0.00762207
0.00762233
0.00762325
0.00762793
0.00762247
0.00762628
0.0076328
0.00762493
0.00762415
0.00762425
0.00762228
0.00762386
0.00762195
0.00762544
0.00762324
0.00763018
0.00762406
0.00762277
0.00762459
0.00762196
0.00762348
0.00763388
0.00762258
0.00762622
0.00763283
0.00762834
0.00762372
0.00762228
0.00763601
0.00762428
0.00762415
0.00762205
0.007622
0.00762223
0.00762216
0.00763338
0.00762267
0.00762269
0.00762614
0.00762269
0.00762375
0.00762226
0.00762254
0.00762936
0.00762205
0.00762972
0.007622
0.00762205
0.0076231
0.00762352
0.00762739
0.00762421
0.00762272
0.0076225
0.00763019
0.00762663
0.00762202
0.00762493
0.00762201
0.00762384
0.00762604
0.00762211
0.00762288
0.00762601
0.00762402
0.00762536
0.00762643
0.00762212
0.00762194
0.00763103
0.00762195
0.00762397
0.00762386
0.0076221
0.00762378
0.00762546
0.00762213
0.00762456
0.00762683
0.00762228
0.00762199
0.00762281
0.00762245
0.00762439
0.00762868
0.00762226
0.00762205
0.00762404
0.00762292
0.00762552
0.00762379
0.00762247
0.00762396
0.00762682
0.00762224
0.00763124
0.00762209
0.00763781
0.0076237
0.00762288
0.0076242
0.00762203
0.00762526
0.0076221
0.00762214
0.00763057
0.00762201
0.00762598
0.00762249
0.00762343
0.00762233
0.00762213
0.0076221
0.00762355
0.00762208
0.00762231
0.00762571
0.00762468
0.00762191
0.00762581
0.00762526
0.00762388
0.00762215
0.00762512
0.00762315
0.00762374
0.00762371
0.00762268
0.00762607
0.00762245
0.00762209
0.00762206
0.00762894
0.00762743
0.00762446
0.00762204
0.00762234
0.00762231
0.00762486
0.00762234
0.00762716
0.00762392
0.00762228
0.00762687
0.00762952
0.00762518
0.00762246
0.00762244
0.007626
0.00762787
0.00762243
0.00762512
0.00762668
0.00762815
0.0076223
0.00762198
0.00762223
0.00762436
0.00762816
0.00762214
0.00762572
0.00762518
0.00762397
0.00762394
0.00762475
0.00763249
0.00762502
0.0076224
0.00763259
0.00762766
0.00762201
0.007622
0.00762425
0.00762224
0.00762217
0.00762828
0.00762225
0.00762386
0.00762327
0.0076238
0.00762652
0.00762204
0.00762387
0.00762631
0.00762968
0.00762204
0.00762744
0.00762363
0.00762404
0.00762479
0.00762251
0.00762202
0.00762199
0.00762969
0.00762508
0.00762404
0.0076241
0.00762234
0.00762255
0.00762286
0.00762459
0.00763268
0.00762227
0.00762233
0.00762929
0.00762884
0.00762487
0.00762245
0.00762218
0.00762227
0.00762232
0.00762196
0.00762389
0.0076245
0.0076251
0.00762248
0.00762471
0.00763485
0.00762675
0.00762227
0.00762217
0.00762428
0.0076257
0.00762559
0.00762232
0.00762389
0.00762399
0.00762735
0.00762394
0.00762567
0.00762422
0.00763388
0.0076252
0.00762226
0.00762248
0.00762206
0.00763094
0.00763448
0.00762702
0.00762386
0.00762216
0.00762936
0.00762299
0.00762236
0.00762684
0.00762386
0.00762487
0.00762247
0.00762273
0.00762625
0.00762254
0.00762211
0.00762244
0.00762285
0.0076223
0.00762331
0.00762424
0.00762942
0.00762622
0.00762193
0.00762482
0.00762966
0.00763168
0.00762663
0.00762344
0.00762443
0.00762196
0.00762239
0.0076257
0.00762374
0.00762537
0.00762773
0.00763235
0.00762993
0.00762403
0.00762395
0.00762435
0.00762676
0.00762267
0.00762254
0.0076224
0.00762255
0.00762296
0.00762227
0.00762991
0.00762227
0.00762381
0.00762507
0.00762379
0.00763081
0.0076219
0.00762279
0.00762226
0.00763136
0.00762358
0.00762239
0.00762224
0.00762745
0.00762279
0.00762675
0.00762293
0.00762535
0.00762551
0.00762217
0.00762452
0.00762423
0.00762883
0.00762207
0.00762358
0.00762288
0.00762759
0.00762878
0.00762243
0.00762874
0.00762412
0.00762233
0.00762614
0.00762495
0.00762611
0.00762198
0.00763358
0.00762457
0.00762234
0.00762334
0.00762399
0.00762647
0.00762209
0.0076275
0.00762869
0.00762217
0.00762661
0.00762244
0.00762435
0.00762672
0.00762517
0.00762718
0.00762405
0.0076229
0.00762386
0.00762207
0.00762209
0.00762546
0.007622
0.00762481
0.00762277
0.00762209
0.00762226
0.00762392
0.00762445
0.00763021
0.00762386
0.00763086
0.00762467
0.00762731
0.00762247
0.00762249
0.00762449
0.00762383
0.00762206
0.00762224
0.00762228
0.00762549
0.00762447
0.00762217
0.00762208
0.00762755
0.00762487
0.00762388
0.00762256
0.00762495
0.00762256
0.0076289
0.00762837
0.00762209
0.00762708
0.00762911
0.00762227
0.00763416
0.00762223
0.00762863
0.00762297
0.00762508
0.0076245
0.00762794
0.00762495
0.00762777
0.00762458
0.00762214
0.00762575
0.00762434
0.00763084
0.007624
0.00762424
0.00762497
0.00762446
0.00762432
0.00762435
0.00762402
0.00762943
0.00762205
0.00762195
0.00762225
0.00762253
0.00762529
0.00762849
0.00762798
0.00762402
0.00762555
0.0076229
0.00762415
0.00762583
0.00762207
0.00762327
0.00762218
0.00762572
0.00762548
0.00762226
0.00762663
0.00762532
0.00762855
0.00762206
0.00762207
0.00763287
0.00762547
0.00762255
0.00762362
0.00762611
0.00763067
0.00762331
0.0076229
0.00762692
0.00762433
0.00762386
0.00762206
0.00762226
0.00762956
0.00762268
0.00762226
0.00762275
0.0076222
0.00762773
0.00762541
0.00762394
0.00762228
0.00762227
0.00762404
0.00762254
0.00762208
0.00762504
0.00762208
0.00762205
0.00762206
0.00762278
0.00762668
0.00762311
0.00762204
0.00762242
0.0076228
0.0076267
0.00762956
0.00762253
0.00762424
0.00762265
0.00762841
0.00762517
0.00762623
0.00763017
0.00762207
0.00763003
0.00762626
0.00762223
0.00763302
0.00762223
0.00762747
0.00762228
0.00762985
0.00762499
0.00762388
0.00762274
0.00762338
0.00762536
0.00762969
0.00762617
0.00762787
0.0076225
0.00762205
0.00762206
0.0076242
0.00762427
0.00763284
0.00762384
0.00763179
0.00762847
0.00762388
0.00762556
0.00762288
0.00762229
0.00762546
0.00762535
0.00762402
0.00762632
0.00762248
0.00762636
0.00762812
0.00762503
0.00762396
0.00762494
0.00762972
0.00762391
0.00762445
0.00762611
0.00762529
0.00762347
0.00762197
0.00762206
0.00762294
0.00762739
0.00762521
0.00762523
0.00762868
0.00762689
0.00762456
0.00762447
0.00762201
0.0076317
0.00762255
0.00762278
0.00762747
0.00762209
0.00762469
0.00762506
0.00762434
0.00762424
0.00762752
0.00762824
0.00762227
0.00763423
0.00763018
0.00762218
0.00762214
0.00762468
0.00762417
0.00763426
0.00762586
0.00762516
0.00762571
0.0076227
0.00763378
0.00762639
0.00762452
0.00762249
0.0076301
0.00762765
0.00762427
0.00762436
0.00762588
0.00762563
0.0076262
0.00762225
0.00762209
0.0076288
0.00762667
0.00762248
0.00762769
0.00762291
0.00762387
0.00762419
0.00762256
0.0076226
0.00762216
0.00762223
0.00762398
0.00762345
0.00762218
0.00762255
0.00762227
0.00762246
0.00762333
0.00762495
0.00762419
0.00762563
0.00762304
0.00762865
0.00762419
0.00762258
0.00762499
0.00762447
0.0076242
0.00762274
0.00762238
0.00762613
0.00762431
0.00762277
0.00762411
0.00763039
0.00762982
0.00762779
0.00762776
0.00762402
0.00762882
0.00762982
0.0076262
0.00762232
0.00762695
0.00762411
0.00762415
0.00762536
0.00763372
0.00762218
0.00762213
0.00762449
0.00762333
0.0076336
0.00763387
0.00762272
0.00762578
0.00762452
0.00762643
0.00762612
0.00762418
0.00762981
0.00762242
0.00762419
0.00762265
0.00762255
0.0076269
0.00762402
0.00762249
0.00762932
0.00762786
0.00762226
0.00762233
0.00763425
0.00762208
0.00762355
0.00762677
0.00762729
0.00763273
0.00762216
0.0076226
0.0076252
0.00762264
0.0076221
0.00762815
0.00762755
0.00762542
0.00762645
0.00762441
0.00762223
0.00763383
0.00762396
0.00762908
0.0076225
0.00762537
0.00762241
0.00762231
0.00762304
0.00762205
0.00762311
0.0076286
0.00762211
0.00762243
0.00762725
0.0076266
0.00762493
0.00762405
0.00762447
0.0076261
0.0076232
0.00762232
0.00762531
0.00762423
0.00762227
0.00762451
0.00762226
0.00762431
0.00762533
0.00762746
0.00762253
0.00763185
0.00762268
0.00762427
0.00762392
0.00762483
0.00762262
0.007626
0.00762481
0.00762851
0.00762701
0.00762249
0.00762205
0.00762274
0.00762272
0.00762256
0.00762217
0.00762271
0.0076334
0.00762688
0.0076228
0.00762308
0.00762272
0.00762261
0.00762419
0.00762783
0.00762384
0.00762406
0.00762278
0.00762842
0.0076223
0.00762624
0.00762406
0.00762603
0.0076227
0.00762254
0.00762374
0.00762863
0.0076252
0.00762454
0.00762281
0.00762678
0.00762404
0.00762207
0.00762557
0.00762266
0.0076239
0.00762236
0.00762559
0.00762246
0.0076228
0.00762749
0.00762625
0.00762762
0.00762228
0.00762261
0.00762539
0.00762571
0.00762276
0.00762263
0.007622
0.00762543
0.00762511
0.00762252
0.00762525
0.00762265
0.00762691
0.00762276
0.00763296
0.00762226
0.00762306
0.00762205
0.00762267
0.00762515
0.00762676
0.00762678
0.00762388
0.00762286
0.00762435
0.00762549
0.00762402
0.00762539
0.0076227
0.00762547
0.0076267
0.00762445
0.00763153
0.00762435
0.00762537
0.00763093
0.00762481
0.00762538
0.00762551
0.00762996
0.00762278
0.00762272
0.00762222
0.00762205
0.00762512
0.00762511
0.00763348
0.00762739
0.00762239
0.00762541
0.0076251
0.00762288
0.00762391
0.00762456
0.00762269
0.0076253
0.00762438
0.00762435
0.00762193
0.00762357
0.0076231
0.00762325
0.00762503
0.00762244
0.00762694
0.00762389
0.00762225
0.00762815
0.00762606
0.00762494
0.00762925
0.00762204
0.0076223
0.00762689
0.00762583
0.0076304
0.00762253
0.00762234
0.00763426
0.00763063
0.00762472
0.00762543
0.00762529
0.0076238
0.00762459
0.00762229
0.00762626
0.00762426
0.0076256
0.00762835
0.00763016
0.00762257
0.00762398
0.00762545
0.00762664
0.00763119
0.00762491
0.0076255
0.00763255
0.00763245
0.00762315
0.00762427
0.00762682
0.00762461
0.00763125
0.00762859
0.00762785
0.00763523
0.00762231
0.0076266
0.00763152
0.00762704
0.00763045
0.0076228
0.00762451
0.00762235
0.00762419
0.007622
0.00763421
0.00762225
0.00762704
0.00762451
0.00762447
0.00762861
0.00762496
0.00763086
0.00762556
0.00762922
0.00762657
0.00762719
0.00762573
0.00762268
0.00762428
0.00762638
0.00762435
0.0076301
0.00762255
0.00762502
0.00763006
0.00762954
0.0076221
0.00762275
0.00762449
0.0076239
0.00762451
0.00762903
0.0076243
0.00763271
0.0076352
0.00762542
0.00762555
0.00762292
0.00762876
0.00762558
0.00762428
0.0076303
0.00762556
0.00762871
0.00762334
0.00762944
0.00762476
0.00762752
0.00762454
0.00762207
0.00762427
0.00762548
0.007622
0.00763479
0.00762673
0.00762209
0.00762427
0.00763296
0.00763255
0.00762195
0.045278
0.00762194
0.0452789
0.0076213
0.00762281
0.00762194
0.00762194
0.0452885
0.0451227
0.00762182
0.0452751
0.00762194
0.00762194
0.00762183
0.00762181
0.00762285
0.00762194
0.00762207
0.00762198
0.00762198
0.0451826
0.00762187
0.00762197
0.00762199
0.0452757
0.0452764
0.0452688
0.00762183
0.00762194
0.00762194
0.00762194
0.0076219
0.00762194
0.00762194
0.00762194
0.00762192
0.00762194
0.00762193
0.00762189
0.0451378
0.00762188
0.0451232
0.00762183
0.00762171
0.0451243
0.00762194
0.045134
0.0452859
0.0451277
0.00762186
0.00762286
0.0451229
0.00762194
0.0452338
0.00762186
0.00762215
0.00762184
0.00762194
0.00762186
0.00762194
0.00762194
0.00762203
0.00762193
0.00762195
0.00762194
0.00762198
0.00762194
0.00762185
0.00762192
0.00762195
0.00762194
0.00762194
0.00762189
0.00762192
0.00762191
0.00762194
0.00762182
0.00762154
0.00762255
0.00762175
0.00762199
0.0451226
0.0452882
0.00762195
0.0452618
0.0452562
0.00762195
0.0451237
0.0451245
0.0451813
0.0451267
0.00762186
0.045123
0.0076219
0.00762192
0.00762191
0.00762262
0.00762384
0.00762205
0.00762193
0.00762194
0.0076228
0.00762186
0.00762316
0.00762228
0.00762178
0.00762178
0.00762178
0.00762179
0.00762179
0.00762181
0.00762179
0.0076218
0.00762178
0.0076218
0.00762179
0.00762177
0.00762177
0.00762176
0.00762176
0.00762173
0.00762172
0.00762195
0.00762173
0.00762172
0.00824525
0.00762173
0.00762176
0.0119807
0.014219
0.0077212
0.0076329
0.0226899
0.007883
0.0076217
0.0119809
0.00762174
0.00762216
0.00762058
0.00762357
0.00762305
0.00762188
0.00762287
0.00762187
0.00762188
0.00762187
0.00762384
0.00762099
0.00762286
0.00762193
0.00762188
0.00762042