/*--------------------------------*- C++ -*----------------------------------*\
| =========                 |                                                 |
| \\      /  F ield         | OpenFOAM: The Open Source CFD Toolbox           |
|  \\    /   O peration     | Version:  dev                                   |
|   \\  /    A nd           | Web:      www.OpenFOAM.org                      |
|    \\/     M anipulation  |                                                 |
\*---------------------------------------------------------------------------*/
FoamFile
{
    version     2.0;
    format      ascii;
    class       volScalarField;
    location    "0.260000";
    object      omega;
}
// * * * * * * * * * * * * * * * * * * * * * * * * * * * * * * * * * * * * * //

dimensions      [0 0 -1 0 0 0 0];

internalField   nonuniform List<scalar> 
87727
(
38.9361
38.936
38.9359
38.9495
38.9367
38.9515
38.9644
38.9762
38.9741
38.9698
38.9784
38.9782
38.9702
38.9954
38.9742
38.9715
38.9767
38.9728
38.9798
38.9699
38.9774
38.9725
38.9721
38.9757
38.9686
38.9675
38.973
38.9711
38.9603
38.9653
38.9634
38.9698
38.9632
38.9727
38.9657
38.9648
38.9712
38.9705
38.9723
38.9362
38.972
38.9718
38.9633
38.97
38.95
38.9719
38.9556
38.9551
38.9571
38.9742
38.9637
38.965
38.95
38.9363
38.9706
38.9709
38.9725
38.9577
38.9517
38.939
38.9414
38.9367
38.9368
38.9532
38.9361
38.9359
38.9374
38.9529
38.9367
38.936
38.9371
38.9433
38.9534
38.936
38.9362
38.9361
38.936
38.9361
38.9371
38.9521
38.936
38.9362
38.9362
38.9642
38.9655
38.9537
38.9363
38.95
38.9361
38.936
38.9513
38.95
38.9723
38.9632
38.9726
38.9718
38.9358
38.9435
38.9751
38.9365
38.936
38.9495
38.9656
38.958
38.9361
38.936
38.9564
38.9728
38.9477
38.9729
38.9728
38.9698
38.9633
38.9364
38.9507
38.9658
38.9358
38.9776
38.936
38.9501
38.947
38.9518
38.9781
38.936
38.9455
38.9578
38.9713
38.936
38.9632
38.9646
38.9501
38.9618
38.9776
38.962
38.9417
38.9678
38.9496
38.9719
38.9727
38.9504
38.964
38.9568
38.9495
38.9728
38.9599
38.9362
38.9585
38.9727
38.9631
38.9633
38.9524
38.9406
38.95
38.9362
38.9725
38.9497
38.9372
38.9583
38.9382
38.9663
38.95
38.9843
38.975
38.9724
38.947
38.9515
38.9361
38.936
38.9362
38.9362
38.936
38.9365
38.9364
38.9497
38.9361
38.9723
38.9365
38.9366
38.9723
38.9722
38.9719
38.9719
38.953
38.9363
38.9719
38.9718
38.95
38.9367
38.9645
38.9364
38.9502
38.936
38.9724
38.9583
38.936
38.936
38.9361
38.9657
38.9362
38.9362
38.9359
38.9478
38.951
38.9652
38.936
38.9721
38.972
38.936
38.9362
38.9362
38.9373
38.9373
38.9362
38.9362
38.9517
38.9516
38.9363
38.9359
38.9361
38.9674
38.9721
38.9359
38.9502
38.9361
38.964
38.9362
38.9638
38.9501
38.9434
38.9737
38.9361
38.9358
38.9359
38.9506
38.9669
38.9495
38.9575
38.9382
38.9378
38.9496
38.9359
38.9652
38.9463
38.9458
38.9748
38.9383
38.9382
38.9477
38.9359
38.9361
38.9432
38.9725
38.9763
38.9728
38.9634
38.9587
38.9773
38.9507
38.9498
38.9734
38.9528
38.9362
38.9652
38.9456
38.9358
38.9635
38.9641
38.9663
38.9781
38.9581
38.9503
38.95
38.9506
38.944
38.9396
38.9405
38.9591
38.9669
38.9504
38.95
38.9784
38.95
38.9582
38.9394
38.9778
38.9745
38.9364
38.9358
38.9362
38.9456
38.9767
38.9632
38.9642
38.9585
38.9633
38.9559
38.946
38.9364
38.9483
38.9371
38.9753
38.946
38.9537
38.9755
38.9529
38.9456
38.9363
38.9429
38.9365
38.9371
38.9498
38.9761
38.9466
38.9429
38.977
38.9362
38.9721
38.9591
38.9601
38.9509
38.9375
38.9495
38.9692
38.9586
38.9442
38.9361
38.9628
38.9633
38.9531
38.9362
38.9662
38.9588
38.978
38.936
38.978
38.973
38.9359
38.9363
38.9362
38.9584
38.9782
38.9361
38.9593
38.9632
38.9783
38.9362
38.936
38.947
38.9502
38.9359
38.9371
38.9457
38.9543
38.936
38.9359
38.9372
38.9782
38.9359
38.9434
38.9606
38.9697
38.9637
38.9362
38.9369
38.9633
38.9361
38.9499
38.9359
38.9359
38.9769
38.9549
38.9773
38.954
38.9576
38.97
38.9454
38.9439
38.9606
38.9425
38.9702
38.9361
38.9578
38.9559
38.9503
38.9887
38.976
38.9707
38.9444
38.9456
38.9362
38.9641
38.936
38.9439
38.9426
38.963
38.9397
38.9476
38.9378
38.9553
38.9363
38.937
38.9367
38.9362
38.9361
38.936
38.944
38.9359
38.9506
38.9709
38.9368
38.9495
38.9498
38.9438
38.9428
38.9627
38.9429
38.9368
38.9375
38.9434
38.9453
38.9362
38.9471
38.9455
38.9371
38.9371
38.9501
38.9559
38.9402
38.9634
38.9363
38.9531
38.9648
38.9694
38.9455
38.9478
38.9363
38.9705
38.9593
38.949
38.9561
38.9695
38.9456
38.9498
38.9369
38.9469
38.9367
38.9361
38.9535
38.9463
38.9747
38.9682
38.9466
38.9359
38.9361
38.946
38.9434
38.9363
38.9665
38.9362
38.9369
38.9671
38.9361
38.9739
38.9512
38.9557
38.972
38.97
38.9363
38.9505
38.9455
38.9391
38.9677
38.9616
38.9467
38.936
38.9463
38.9361
38.936
38.9479
38.936
38.936
38.9518
38.9363
38.9639
38.9716
38.9475
38.9359
38.9659
38.9455
38.9495
38.9648
38.965
38.9363
38.9595
38.943
38.966
38.9359
38.9364
38.953
38.944
38.9361
38.9364
38.9468
38.964
38.9366
38.9635
38.9366
38.947
38.9435
38.937
38.9363
38.9464
38.9697
38.9435
38.9497
38.9363
38.9462
38.959
38.9428
38.9368
38.9554
38.9481
38.9361
38.9497
38.949
38.9572
38.9455
38.9525
38.9552
38.9364
38.9362
38.9499
38.9429
38.9441
38.9371
38.9361
38.9546
38.9665
38.9497
38.9498
38.947
38.9468
38.9616
38.948
38.9463
38.9361
38.9604
38.936
38.96
38.9372
38.9388
38.966
38.9387
38.9522
38.9442
38.958
38.9372
38.9486
38.9508
38.936
38.9434
38.9658
38.9639
38.9665
38.937
38.9556
38.9621
38.9365
38.9668
38.937
38.9717
38.9506
38.9604
38.936
38.9563
38.9516
38.9394
38.9362
38.9515
38.9461
38.9542
38.9463
38.9544
38.9434
38.9529
38.9372
38.972
38.9428
38.937
38.9668
38.9641
38.9432
38.9566
38.9527
38.946
38.9456
38.9457
38.957
38.9497
38.9581
38.9523
38.9365
38.9371
38.9633
38.966
38.936
38.9371
38.9361
38.9708
38.9477
38.9484
38.9527
38.9368
38.9428
38.9367
38.9498
38.9491
38.9361
38.9452
38.9463
38.9461
38.9472
38.9434
38.9457
38.9373
38.9596
38.9518
38.9476
38.9364
38.9491
38.9365
38.9368
38.9418
38.9704
38.9594
38.964
38.9521
38.937
38.9489
38.9636
38.9461
38.9458
38.9614
38.9648
38.9369
38.9621
38.9519
38.9533
38.9655
38.9645
38.9461
38.9362
38.951
38.9362
38.9367
38.9369
38.9632
38.9364
38.9514
38.9362
38.9478
38.9361
38.952
38.946
38.9361
38.9367
38.9364
38.9609
38.936
38.9564
38.9576
38.9647
38.9377
38.9363
38.936
38.9428
38.9368
38.9368
38.9551
38.9465
38.9455
38.9645
38.9539
38.9589
38.9368
38.9525
38.9455
38.936
38.9429
38.9524
38.9566
38.955
38.936
38.9498
38.9364
38.9657
38.9429
38.9368
38.9556
38.9462
38.9651
38.9529
38.9364
38.9417
38.9642
38.9552
38.9635
38.9463
38.9364
38.9685
38.9576
38.9534
38.9486
38.9364
38.9366
38.9384
38.9368
38.95
38.952
38.956
38.9683
38.9364
38.955
38.9371
38.9363
38.9434
38.9699
38.9722
38.953
38.9623
38.9623
38.9728
38.9604
38.9429
38.9555
38.9598
38.9362
38.9641
38.9369
38.9361
38.9529
38.956
38.9662
38.966
38.936
38.9481
38.936
38.9462
38.936
38.9545
38.9522
38.9642
38.9645
38.9362
38.9378
38.9539
38.9659
38.9369
38.9487
38.9429
38.9363
38.936
38.9563
38.9619
38.9713
38.9372
38.9361
38.962
38.9575
38.946
38.9513
38.9525
38.9457
38.9703
38.9368
38.9655
38.943
38.9544
38.9365
38.9366
38.9429
38.9365
38.9492
38.9561
38.9462
38.94
38.951
38.9367
38.9395
38.9441
38.9429
38.9375
38.966
38.9639
38.9583
38.9561
38.964
38.9362
38.9367
38.9386
38.9642
38.9703
38.9435
38.9647
38.9646
38.9512
38.9366
38.947
38.965
38.9455
38.9367
38.9478
38.9368
38.9435
38.9364
38.9438
38.9477
38.9515
38.9367
38.953
38.9726
38.9566
38.9429
38.9528
38.945
38.9558
38.9429
38.9531
38.9388
38.9371
38.9574
38.971
38.9464
38.949
38.9534
38.9634
38.9473
38.942
38.9509
38.9601
38.936
38.9717
38.943
38.9491
38.9363
38.939
38.9368
38.9506
38.9635
38.9374
38.9475
38.9369
38.9379
38.9372
38.9379
38.9398
38.9361
38.9528
38.9602
38.9668
38.949
38.9516
38.9447
38.9407
38.9364
38.969
38.9655
38.9375
38.9361
38.957
38.9669
38.9533
38.9515
38.9605
38.9366
38.947
38.9361
38.947
38.9369
38.949
38.9691
38.9372
38.9387
38.9369
38.9643
38.9449
38.9616
38.9507
38.9368
38.9364
38.9499
38.9437
38.9364
38.9369
38.9502
38.9361
38.9559
38.9472
38.9443
38.9462
38.9532
38.9468
38.9379
38.9723
38.9643
38.9615
38.9363
38.9441
38.9489
38.9462
38.9468
38.9363
38.9511
38.959
38.9512
38.9363
38.9372
38.9726
38.9372
38.939
38.9664
38.9458
38.963
38.9455
38.9648
38.9528
38.9365
38.9377
38.9441
38.936
38.9384
38.95
38.9586
38.9363
38.9363
38.9486
38.9647
38.9501
38.9363
38.9477
38.9461
38.9499
38.9455
38.9676
38.9392
38.9431
38.9518
38.943
38.9363
38.9462
38.9558
38.9562
38.9666
38.936
38.9373
38.9361
38.9429
38.9444
38.9363
38.943
38.9435
38.9359
38.9608
38.9547
38.9549
38.9368
38.9594
38.9452
38.959
38.9359
38.9466
38.9522
38.9482
38.9467
38.9375
38.9599
38.9464
38.9544
38.948
38.9613
38.9651
38.9648
38.9629
38.9374
38.9432
38.9432
38.9607
38.9662
38.9608
38.9363
38.9363
38.9363
38.9365
38.9448
38.9364
38.9365
38.9433
38.9379
38.9567
38.9641
38.9641
38.946
38.9587
38.9397
38.9381
38.936
38.9596
38.9384
38.9536
38.9505
38.9542
38.9516
38.9468
38.9362
38.9461
38.9476
38.9376
38.9365
38.9475
38.9573
38.963
38.9707
38.9366
38.9363
38.9361
38.9432
38.937
38.9364
38.937
38.9422
38.9505
38.9545
38.9371
38.9558
38.9459
38.9371
38.9369
38.9646
38.9639
38.9479
38.9577
38.9478
38.9362
38.9363
38.9671
38.9517
38.9714
38.9536
38.9364
38.9362
38.9543
38.9361
38.9361
38.9363
38.9415
38.9362
38.9561
38.9565
38.9431
38.9361
38.9647
38.9435
38.9583
38.9478
38.9386
38.9447
38.9459
38.9431
38.9622
38.9551
38.9657
38.9574
38.9441
38.9429
38.9546
38.9368
38.9525
38.9628
38.9372
38.949
38.9367
38.9605
38.9643
38.9369
38.9439
38.9364
38.9431
38.9658
38.9606
38.9439
38.9365
38.9432
38.9363
38.9529
38.9575
38.9377
38.9732
38.9365
38.9635
38.9644
38.9363
38.9363
38.944
38.9379
38.9548
38.9547
38.9533
38.9368
38.9359
38.9509
38.9377
38.9489
38.9553
38.9463
38.9479
38.9364
38.9363
38.9459
38.9367
38.9365
38.9364
38.9384
38.944
38.9476
38.9513
38.9615
38.9481
38.9457
38.9364
38.9367
38.943
38.9607
38.9368
38.9368
38.9429
38.9409
38.9369
38.9458
38.9375
38.9368
38.9373
38.9364
38.9375
38.9435
38.9668
38.9504
38.9479
38.9375
38.9581
38.943
38.952
38.9364
38.9666
38.9391
38.953
38.9462
38.9409
38.9697
38.9361
38.9647
38.9362
38.952
38.9526
38.9369
38.9515
38.9467
38.9365
38.9572
38.958
38.9498
38.9532
38.9441
38.946
38.9515
38.9631
38.943
38.9548
38.9438
38.9561
38.9644
38.949
38.9432
38.9439
38.9436
38.9458
38.9411
38.9434
38.9368
38.954
38.9631
38.9364
38.9359
38.9617
38.936
38.94
38.9535
38.9648
38.9362
38.95
38.9431
38.943
38.9369
38.9441
38.9464
38.952
38.9462
38.9394
38.964
38.9376
38.9434
38.9372
38.9462
38.9438
38.9363
38.9721
38.9366
38.9364
38.9475
38.9555
38.936
38.9641
38.9646
38.9661
38.9561
38.9496
38.9365
38.9459
38.9442
38.9703
38.9601
38.9548
38.9365
38.95
38.937
38.9473
38.951
38.9362
38.9428
38.9373
38.9359
38.9644
38.9568
38.9367
38.9447
38.9624
38.9431
38.9367
38.951
38.9647
38.9363
38.9451
38.9434
38.9462
38.9373
38.9459
38.9371
38.9497
38.9365
38.9444
38.9371
38.9441
38.9532
38.9363
38.936
38.9537
38.9437
38.944
38.9424
38.9464
38.9657
38.9542
38.9548
38.958
38.9473
38.946
38.9446
38.9471
38.9492
38.9563
38.9602
38.95
38.9439
38.9483
38.9467
38.9361
38.9461
38.9392
38.9458
38.954
38.9442
38.9407
38.9435
38.948
38.9463
38.9363
38.9614
38.937
38.937
38.9369
38.937
38.9494
38.948
38.937
38.9367
38.943
38.9481
38.9611
38.972
38.957
38.9463
38.9368
38.9363
38.9549
38.9517
38.9485
38.9582
38.9433
38.9369
38.9385
38.9438
38.9429
38.9468
38.9431
38.9492
38.946
38.9362
38.9363
38.9362
38.9375
38.9363
38.946
38.9369
38.9359
38.9461
38.936
38.9622
38.9548
38.9474
38.9367
38.9548
38.9368
38.9486
38.9649
38.9371
38.9434
38.9368
38.9368
38.9441
38.9456
38.946
38.9432
38.9507
38.9639
38.9366
38.9367
38.9585
38.9435
38.9494
38.9552
38.9369
38.9374
38.9429
38.938
38.9465
38.9514
38.9465
38.9364
38.9364
38.9368
38.9437
38.9386
38.9574
38.9432
38.9439
38.9568
38.9401
38.9456
38.946
38.9442
38.9476
38.9558
38.9621
38.9451
38.9592
38.9433
38.9368
38.9369
38.9493
38.9363
38.9441
38.9456
38.9441
38.9367
38.9418
38.9367
38.9367
38.9388
38.9364
38.9365
38.9441
38.9627
38.9553
38.9433
38.9471
38.9368
38.9626
38.9474
38.9581
38.9372
38.9436
38.946
38.9654
38.9369
38.9536
38.9446
39.002
38.9473
38.9362
38.9502
38.9363
38.937
38.9537
38.9453
38.9432
38.9373
38.9373
38.9376
38.9619
38.9373
38.9364
38.9364
38.9373
38.9528
38.9521
38.9361
38.9494
38.9383
38.9387
38.9432
38.9456
38.9491
38.9376
38.9365
38.9531
38.9479
38.948
38.9389
38.9431
38.9437
38.9481
38.9361
38.9642
38.9572
38.9371
38.9513
38.9384
38.9364
38.9368
38.9373
38.9435
38.9487
38.9487
38.9437
38.9364
38.9432
38.9474
38.9364
38.9373
38.9548
38.9465
38.9368
38.945
38.9514
38.9512
38.9458
38.9363
38.9458
38.9371
38.9462
38.9431
38.9361
38.9376
38.9443
38.9571
38.9514
38.9435
38.9566
38.9363
38.9373
38.9364
38.944
38.9437
38.9363
38.948
38.9368
38.9447
38.9432
38.9362
38.9546
38.9437
38.9565
38.9367
38.9482
38.939
38.9376
38.9368
38.953
38.9375
38.9466
38.9643
38.9441
38.9362
38.9382
38.9373
38.9516
38.9372
38.9367
38.9368
38.9642
38.9361
38.9373
38.9479
38.9479
38.9563
38.9491
38.9433
38.9512
38.9368
38.943
38.9368
38.9576
38.9461
38.9368
38.9405
38.9368
38.9505
38.9596
38.9483
38.9552
38.9362
38.9405
38.9375
38.9515
38.946
38.9547
38.9515
38.9526
38.9487
38.9378
38.9369
38.9797
38.9382
38.936
38.9389
38.9369
38.9583
38.9368
38.9369
38.9448
38.9363
38.9386
38.937
38.9567
38.9506
38.9435
38.9363
38.9368
38.9369
38.9364
38.937
38.9483
38.961
38.9477
38.944
38.9368
38.9447
38.9585
38.944
38.9366
38.9463
38.9439
38.9377
38.9438
38.9489
38.9547
38.94
38.9368
38.9433
38.9394
38.9361
38.9368
38.943
38.943
38.946
38.9662
38.9507
38.9368
38.9433
38.9371
38.9534
38.9484
38.9505
38.9557
38.9463
38.9363
38.9499
38.9364
38.9642
38.9375
38.95
38.9362
38.9506
38.9461
38.9362
38.9391
38.9435
38.9441
38.9487
38.936
38.9638
38.9364
38.9368
38.9388
38.951
38.9372
38.9478
38.9619
38.9457
38.9434
38.9437
38.9367
38.943
38.936
38.946
38.9388
38.9564
38.9432
38.9378
38.9441
38.936
38.9393
38.9642
38.9383
38.9477
38.9621
38.9518
38.9429
38.937
38.9688
38.9436
38.9435
38.9364
38.9362
38.9366
38.9365
38.9625
38.9376
38.9377
38.9477
38.9376
38.9399
38.9368
38.9372
38.9539
38.9362
38.9547
38.9361
38.9364
38.9385
38.9394
38.9502
38.9435
38.9376
38.9372
38.9561
38.9462
38.9362
38.9447
38.9364
38.943
38.9473
38.9364
38.9387
38.9472
38.9434
38.9462
38.948
38.9363
38.9359
38.958
38.936
38.9431
38.943
38.9363
38.943
38.946
38.9364
38.944
38.949
38.9367
38.9361
38.9379
38.9373
38.9439
38.9528
38.9368
38.9363
38.943
38.938
38.9462
38.943
38.9374
38.9431
38.95
38.9368
38.9585
38.9363
38.9722
38.9429
38.938
38.9436
38.9362
38.9456
38.9363
38.9364
38.9565
38.9362
38.9446
38.9372
38.9392
38.9372
38.9365
38.9364
38.9394
38.9364
38.9368
38.9466
38.9451
38.9359
38.9469
38.9458
38.943
38.9364
38.9464
38.9386
38.9398
38.9431
38.9376
38.9477
38.9371
38.9364
38.9363
38.9531
38.9501
38.944
38.9362
38.9369
38.9368
38.9449
38.9369
38.9497
38.9432
38.9367
38.95
38.9545
38.9458
38.9372
38.9371
38.9471
38.9513
38.9372
38.9453
38.9487
38.9496
38.9368
38.936
38.9368
38.9438
38.9517
38.9365
38.9466
38.943
38.9431
38.943
38.9452
38.9612
38.9463
38.937
38.9614
38.9484
38.9361
38.9361
38.9436
38.9366
38.9366
38.9498
38.937
38.943
38.9389
38.9431
38.9483
38.9362
38.9431
38.9478
38.9551
38.9362
38.9505
38.9396
38.9435
38.9452
38.9373
38.9361
38.9361
38.955
38.9452
38.9432
38.9433
38.9369
38.9374
38.938
38.9441
38.9617
38.9368
38.9369
38.9537
38.9533
38.9449
38.9373
38.9365
38.9368
38.9368
38.936
38.9429
38.9439
38.946
38.9373
38.9452
38.9658
38.9489
38.9368
38.9365
38.9436
38.9466
38.9464
38.9371
38.9431
38.9433
38.9501
38.9433
38.9465
38.9436
38.9638
38.9461
38.9367
38.9371
38.9363
38.9584
38.9653
38.9494
38.9401
38.9364
38.954
38.9382
38.9372
38.9489
38.943
38.9423
38.9373
38.9376
38.9476
38.9372
38.9363
38.9373
38.938
38.9371
38.939
38.9437
38.9541
38.9478
38.9359
38.9422
38.9551
38.9591
38.9462
38.9392
38.9439
38.936
38.937
38.9474
38.9432
38.9459
38.9507
38.9612
38.9552
38.943
38.9431
38.9438
38.9487
38.9377
38.9373
38.9373
38.9373
38.9381
38.9368
38.9555
38.937
38.9431
38.9451
38.9431
38.9575
38.9358
38.9379
38.937
38.9591
38.9395
38.9372
38.9368
38.9504
38.9378
38.9489
38.9381
38.9434
38.9463
38.9365
38.9438
38.9435
38.9532
38.9365
38.9395
38.938
38.9504
38.9533
38.9371
38.9531
38.9435
38.9369
38.945
38.9447
38.9475
38.936
38.9637
38.9441
38.9369
38.939
38.9431
38.9482
38.9365
38.9506
38.9529
38.9365
38.9484
38.9373
38.9438
38.9489
38.9461
38.9496
38.9431
38.938
38.9433
38.9363
38.9364
38.9462
38.9361
38.9453
38.9378
38.9363
38.937
38.943
38.944
38.9563
38.9432
38.9576
38.9442
38.95
38.9372
38.9373
38.944
38.9432
38.9363
38.9368
38.9368
38.9462
38.944
38.9366
38.9364
38.9508
38.9453
38.9431
38.9373
38.9455
38.9373
38.953
38.95
38.9364
38.9496
38.9534
38.9369
38.9647
38.9368
38.9525
38.9382
38.9428
38.9441
38.9515
38.9449
38.9511
38.9442
38.9365
38.9442
38.9438
38.9571
38.9431
38.9436
38.945
38.944
38.9437
38.9438
38.9431
38.9523
38.9363
38.936
38.9367
38.9374
38.9462
38.9523
38.9516
38.9431
38.9463
38.938
38.9433
38.9469
38.9366
38.9388
38.9365
38.9467
38.9467
38.937
38.9485
38.9463
38.9523
38.9363
38.9363
38.9621
38.9462
38.9375
38.9396
38.9475
38.9573
38.9402
38.9381
38.9493
38.9437
38.9431
38.9363
38.9369
38.9526
38.9378
38.937
38.9377
38.9365
38.9509
38.946
38.9402
38.9368
38.9368
38.9405
38.9373
38.9363
38.9426
38.9363
38.9364
38.9364
38.9378
38.9487
38.9385
38.9362
38.9373
38.9381
38.9488
38.9546
38.9372
38.9436
38.9377
38.9522
38.9455
38.9477
38.9562
38.9363
38.9554
38.9479
38.9368
38.9623
38.9368
38.9503
38.9368
38.9551
38.9449
38.9429
38.9377
38.9391
38.9459
38.9529
38.9476
38.9514
38.9373
38.9363
38.9362
38.9435
38.9436
38.9614
38.9432
38.96
38.9523
38.9429
38.9463
38.9383
38.9368
38.9436
38.9458
38.9431
38.9481
38.9374
38.9481
38.9515
38.9457
38.9431
38.9448
38.9551
38.9431
38.944
38.9474
38.9462
38.9393
38.936
38.9362
38.9381
38.9503
38.9431
38.9459
38.953
38.9491
38.9441
38.9441
38.9361
38.9597
38.9373
38.9378
38.9505
38.9364
38.9442
38.945
38.9412
38.9435
38.9507
38.9518
38.9368
38.9653
38.9541
38.9365
38.9364
38.9442
38.9434
38.965
38.9468
38.9455
38.9468
38.9377
38.9635
38.9482
38.9441
38.9373
38.9563
38.9505
38.941
38.9438
38.9471
38.9464
38.9476
38.9368
38.9364
38.9531
38.9488
38.9372
38.9506
38.938
38.9433
38.9435
38.9382
38.9377
38.9364
38.9368
38.9433
38.9392
38.9365
38.9373
38.9368
38.9373
38.939
38.9447
38.9407
38.9465
38.9383
38.9529
38.9408
38.9374
38.9457
38.944
38.9408
38.9377
38.9372
38.9474
38.9437
38.9378
38.9432
38.9567
38.9557
38.9486
38.9486
38.9431
38.9532
38.9549
38.9476
38.9369
38.9494
38.9408
38.9433
38.9434
38.9639
38.9366
38.9365
38.944
38.9403
38.9636
38.9642
38.9377
38.9468
38.9437
38.9482
38.9475
38.9435
38.9556
38.9373
38.9408
38.9379
38.9375
38.9491
38.9431
38.9373
38.9521
38.9514
38.9368
38.937
38.9651
38.9363
38.9395
38.9489
38.9476
38.9618
38.9364
38.9377
38.9454
38.9384
38.9364
38.9514
38.9507
38.9461
38.9483
38.9439
38.9366
38.9641
38.9432
38.9538
38.9374
38.9465
38.9372
38.9368
38.9384
38.9362
38.9386
38.9505
38.9364
38.9373
38.9498
38.9487
38.9449
38.9431
38.944
38.9474
38.9388
38.9369
38.9458
38.9435
38.937
38.9441
38.9368
38.9438
38.9466
38.9512
38.9375
38.9577
38.9376
38.9437
38.943
38.9449
38.9376
38.9472
38.9445
38.9524
38.9494
38.9374
38.9362
38.9377
38.9378
38.9375
38.9365
38.9378
38.9632
38.9493
38.9379
38.9385
38.9377
38.9377
38.9434
38.9512
38.9401
38.9434
38.9378
38.9522
38.9369
38.9478
38.9432
38.9448
38.9377
38.9374
38.9397
38.9525
38.9455
38.944
38.9379
38.949
38.9431
38.9363
38.9463
38.9377
38.9427
38.9371
38.9464
38.9373
38.9381
38.9507
38.9478
38.9509
38.9369
38.9376
38.9459
38.9466
38.9388
38.9377
38.9361
38.9463
38.9461
38.9373
38.9465
38.9377
38.9493
38.9378
38.9625
38.9368
38.939
38.9364
38.9378
38.9453
38.9499
38.9488
38.9429
38.9391
38.9437
38.9462
38.9405
38.9463
38.9378
38.9462
38.9499
38.944
38.957
38.9438
38.946
38.9557
38.9445
38.9458
38.9463
38.9553
38.9378
38.9378
38.9367
38.9363
38.9452
38.9458
38.9629
38.9478
38.937
38.9466
38.946
38.9383
38.943
38.9441
38.9378
38.9433
38.9438
38.9438
38.9359
38.9395
38.9385
38.9388
38.9451
38.9371
38.9494
38.943
38.9368
38.9515
38.9473
38.9449
38.9537
38.9362
38.937
38.9492
38.9469
38.9568
38.9373
38.9369
38.965
38.9574
38.9443
38.9461
38.9457
38.94
38.9441
38.9368
38.9479
38.9436
38.9464
38.952
38.956
38.9375
38.9403
38.9461
38.9487
38.9584
38.9448
38.9462
38.9616
38.959
38.9386
38.9437
38.9489
38.9442
38.9586
38.9503
38.9513
38.967
38.9368
38.9485
38.9593
38.9495
38.9573
38.9381
38.944
38.9369
38.9435
38.9362
38.9646
38.9368
38.9497
38.9437
38.944
38.9524
38.9449
38.9554
38.9463
38.9541
38.9483
38.9497
38.9467
38.9378
38.9436
38.9482
38.9438
38.9565
38.9375
38.9451
38.9558
38.9544
38.9364
38.938
38.944
38.943
38.9436
38.9538
38.9438
38.961
38.9668
38.9462
38.9464
38.9388
38.9526
38.9464
38.9438
38.9565
38.9464
38.9536
38.9383
38.9547
38.9444
38.9512
38.9439
38.9363
38.9436
38.9462
38.9361
38.9667
38.9489
38.9364
38.9437
38.9625
38.9615
38.9362
201.225
38.9361
201.229
38.9421
38.9401
38.9361
38.9361
201.268
200.588
38.9356
201.214
38.9361
38.9361
38.9358
38.9355
38.9404
38.9361
38.9363
38.9362
38.9362
200.834
38.9358
38.9362
38.9362
201.216
201.219
201.188
38.9356
38.9361
38.9361
38.9361
38.9359
38.9361
38.9361
38.9361
38.936
38.9361
38.9361
38.9359
200.65
38.9358
200.59
38.9356
38.9423
200.594
38.9361
200.634
201.258
200.608
38.9358
38.9403
200.589
38.9361
201.044
38.9357
38.9364
38.9361
38.9361
38.9357
38.9361
38.9361
38.9362
38.936
38.9361
38.9361
38.9362
38.9361
38.9357
38.936
38.9362
38.9362
38.9361
38.936
38.936
38.936
38.9361
38.9356
38.937
38.9373
38.9364
38.9362
200.587
201.267
38.9361
201.159
201.136
38.9361
200.592
200.595
200.828
200.604
38.9358
200.589
38.9359
38.9359
38.9359
38.9375
38.9422
38.9364
38.9362
38.9362
38.9376
38.9359
38.9413
38.9366
38.9354
38.9354
38.9354
38.9355
38.9354
38.9355
38.9354
38.9355
38.9354
38.9355
38.9355
38.9354
38.9354
38.9353
38.9354
38.9352
38.9352
38.9362
38.9352
38.9352
41.7249
38.9352
38.9353
58.6977
68.9616
39.378
38.9848
106.498
40.1008
38.9351
58.699
38.9353
38.9364
38.9397
38.939
38.9409
38.9359
38.9406
38.9359
38.9359
38.9359
38.9452
38.9383
38.9406
38.9361
38.936
38.9439
38.9453
38.9361
38.9404
38.9362
38.9406
38.9428
38.9362
38.9362
38.9361
38.936
38.9363
38.9359
38.9407
38.936
38.936
38.936
38.936
38.9361
38.9405
38.9362
38.9362
38.9445
38.9362
38.9361
38.9378
38.9378
38.948
38.9361
38.9361
38.9359
38.9361
38.9361
38.9373
38.9362
38.9362
38.9437
38.9443
38.9442
38.9362
38.9361
38.9361
200.588
200.587
38.9361
200.588
200.587
126.023
38.9361
38.9361
154.897
38.9361
38.9361
200.587
80.2419
38.936
200.587
38.9361
92.2473
200.587
38.9361
200.587
38.9361
38.9361
200.587
38.9361
44.9497
200.587
38.9361
50.5087
200.589
200.594
106.498
200.59
38.936
200.591
38.936
38.936
38.936
38.9848
39.0895
38.9361
200.588
38.9361
154.898
92.2486
200.588
126.024
106.499
200.595
200.603
200.623
200.598
38.936
200.588
80.2435
38.9361
200.607
200.614
38.936
38.9359
38.936
38.9361
200.588
68.9632
38.9361
38.9359
38.9359
38.9361
50.5095
40.1009
92.2471
38.9361
200.588
38.95
44.9504
41.7253
200.588
38.936
38.9361
38.9351
38.9392
106.498
39.3781
38.9361
38.936
38.9392
126.024
154.897
38.9361
154.898
154.898
154.898
200.591
38.9361
38.9361
38.9352
39.0895
38.936
38.9361
38.9361
126.023
126.023
126.023
154.897
154.897
154.896
38.95
38.9361
38.9361
38.9361
38.9361
38.9361
38.936
200.59
38.9361
38.9362
38.9351
38.9361
38.9361
38.9361
38.9361
38.9361
38.936
106.498
106.498
38.9361
106.499
154.898
38.9361
126.023
126.023
154.897
154.897
200.672
106.499
38.936
38.9351
38.9361
38.9361
38.9361
154.898
38.936
154.898
38.9361
38.9361
154.897
38.936
38.9361
38.936
38.936
38.936
38.936
38.9361
38.9361
58.6972
92.2473
80.2419
68.9613
92.2474
38.936
38.9353
38.9352
38.9361
38.9361
68.9627
80.2431
92.2486
154.898
38.9361
50.5092
38.9361
154.9
154.898
154.898
58.6985
38.9361
38.9361
38.9361
38.9361
154.899
154.902
38.9359
38.9361
38.9361
38.9361
38.9361
41.725
50.5083
44.9495
126.024
38.9361
154.902
154.906
200.652
126.024
38.936
126.024
38.9361
126.024
200.599
106.499
38.936
44.9501
38.9361
38.9361
38.9351
38.9361
126.025
126.024
41.7253
38.9361
80.2416
68.9607
38.9361
40.1008
39.378
126.024
154.915
38.936
92.2482
38.936
80.2426
38.9361
154.91
38.936
154.901
38.936
38.9359
39.0895
154.949
38.936
154.963
126.025
106.499
58.6983
38.9361
38.9361
126.028
38.9848
154.905
68.9619
154.904
126.028
126.026
154.927
126.03
38.936
38.936
38.9361
38.936
200.619
80.2417
38.936
38.9361
38.9359
58.6967
38.9361
92.2498
38.9361
106.5
106.5
126.026
106.499
38.936
80.2427
38.936
106.501
200.602
38.95
126.033
154.921
154.903
38.9361
106.503
39.0895
68.9621
106.499
126.037
92.248
39.3781
38.9361
38.9361
80.242
40.1008
41.725
50.5096
40.1009
154.937
41.7252
200.794
200.697
38.936
38.9361
92.2514
154.983
38.936
126.029
38.936
38.936
38.9361
92.2547
38.9361
38.9361
50.508
38.9361
154.912
38.9361
38.936
38.936
38.9848
38.9361
38.9361
106.508
50.5091
92.2491
44.95
38.9361
38.936
38.9359
106.503
38.9361
38.9361
38.9361
38.936
200.614
44.9495
106.499
126.031
126.043
92.2506
106.506
38.95
126.036
154.909
106.502
92.2481
38.936
39.0895
41.7253
38.936
155.05
38.936
38.936
126.067
58.6982
58.7005
38.9359
38.9359
38.936
106.505
38.936
154.928
200.726
200.762
38.936
38.936
38.9361
38.936
68.9609
50.5083
41.7252
58.6974
106.515
38.9361
58.6988
38.9361
40.101
126.114
38.9361
68.9626
38.936
50.509
92.2473
80.2421
126.034
50.5097
39.0895
39.3781
38.936
126.138
58.7037
40.1009
155.014
38.9359
80.2462
44.95
38.9361
44.9499
38.9361
38.9392
80.2494
38.936
39.0896
92.2575
92.248
50.5142
92.2484
38.9359
38.9361
154.922
200.628
38.9362
92.2616
38.9361
80.2435
92.2522
39.3782
40.101
126.05
126.058
106.508
38.9359
38.9359
155.089
38.9361
68.9638
68.9621
38.9361
154.917
92.2542
80.2436
38.9362
38.9362
39.3781
38.9361
38.936
38.936
38.9351
38.936
126.04
200.683
41.7259
92.2737
38.936
80.2588
38.9848
38.936
38.9392
106.512
92.2578
58.6985
39.3782
44.9509
38.9361
38.936
106.517
154.945
50.5111
38.936
126.045
38.9361
126.05
126.076
41.7271
38.9361
38.9361
106.523
38.9392
38.936
38.9383
38.9848
38.95
38.9361
154.936
68.9678
38.9361
38.936
106.511
38.9361
38.9359
38.9359
38.9444
38.9361
200.638
39.3784
200.729
80.2665
38.936
80.2544
38.936
50.544
106.519
106.562
38.9351
38.9353
38.936
38.9361
154.959
38.936
38.9361
44.9527
92.2607
39.0897
106.538
80.2534
38.9361
38.936
50.5119
58.7053
92.2753
38.936
38.95
126.056
38.9361
38.936
80.2501
38.9351
80.2637
38.9849
40.1017
200.666
68.9747
38.9361
68.9662
38.9416
38.9361
92.2665
38.9351
38.9351
200.922
39.3797
38.9353
92.2811
38.9361
68.9734
38.936
38.95
38.9361
38.9361
38.9361
38.936
80.2449
58.7007
38.936
155.008
38.936
39.379
80.2597
154.972
38.9361
38.936
40.1049
38.9358
126.08
38.936
69.0922
40.1026
50.5159
38.936
38.936
38.9392
38.9353
38.9406
38.9849
39.0907
38.936
38.936
126.066
68.9642
39.0896
38.936
106.542
92.2699
38.9362
38.9361
38.9361
44.9542
40.1013
38.936
38.9351
38.9361
38.9352
106.575
38.936
38.936
38.936
106.531
80.2982
80.2469
38.9361
106.554
38.936
200.705
68.981
92.2648
38.9351
68.9966
38.9361
38.936
39.0897
154.989
68.9696
80.3263
38.9361
68.9802
38.9849
38.9351
38.936
38.936
68.9885
38.9361
80.2707
58.7142
106.531
38.937
126.095
126.122
41.7257
58.7226
38.9351
38.9362
38.9361
39.3786
38.9361
38.936
106.548
38.9351
38.9361
38.9361
44.9506
155.035
50.651
38.95
38.9361
92.2825
38.936
38.936
38.9359
106.524
38.936
38.9423
38.9361
38.9849
38.936
38.936
38.9361
38.936
41.7279
40.1014
38.9361
80.2785
200.88
38.9361
40.1032
68.989
38.9351
106.606
38.9351
38.9361
39.3784
38.936
58.7079
38.936
38.936
38.9361
155.07
69.0006
38.9361
155.105
38.936
38.936
38.9353
38.9359
38.9361
38.9351
38.9351
38.9361
38.936
38.9351
45.0138
38.9361
38.9361
38.95
50.5849
38.936
38.936
58.7321
38.9353
69.0136
50.5189
50.5252
106.632
92.2906
58.7569
38.936
80.2748
44.9517
38.9361
38.9361
38.9393
38.9361
38.9351
38.9393
200.759
58.8389
38.9361
39.09
38.9364
38.9351
38.936
38.9359
38.9361
38.9361
39.0898
69.0191
38.936
38.9352
38.9407
38.9351
38.9351
38.936
126.088
41.7292
80.2876
38.9352
38.936
38.9352
38.9351
38.936
38.9406
38.936
41.7324
106.715
41.7265
39.0903
38.9392
38.9352
155.15
38.9361
106.585
38.9351
50.5339
69.0332
38.9352
38.9361
38.9406
126.216
126.104
80.2857
80.3132
38.9351
38.9364
58.7119
38.9352
38.936
80.3114
38.9359
38.9392
38.936
38.9351
44.9558
126.541
58.744
38.936
200.921
92.3006
38.9354
58.747
38.9361
80.298
50.5227
44.9579
80.4967
39.3801
38.9361
38.9351
106.636
126.142
106.741
38.9362
38.9358
44.9884
38.936
39.3793
38.985
38.936
106.567
44.9631
38.9361
38.9353
38.936
38.9421
38.9406
107.984
38.9351
38.936
50.5318
58.7328
38.9361
38.9352
38.9352
38.936
38.9362
38.9406
126.168
38.936
38.9361
38.9361
38.9383
38.95
38.9361
38.9361
38.9361
69.0722
38.9359
92.4177
38.9352
38.985
38.936
200.965
58.7718
40.1021
38.9351
92.3126
126.174
58.7213
39.3788
58.8956
69.0498
38.9502
80.3331
38.985
58.8109
38.936
69.0074
44.9608
38.95
38.936
38.936
45.0651
106.766
39.3813
38.9361
38.9359
38.936
38.9361
38.936
39.0898
38.9351
38.937
38.9351
38.9361
38.9353
69.1173
92.2916
38.9361
38.936
38.9361
41.7339
38.9361
38.9351
38.936
50.5767
201.015
201.125
92.3059
200.791
38.9353
92.3203
38.9361
38.9351
58.7651
38.9352
155.143
38.936
38.9358
50.5555
38.9501
38.9359
80.3438
38.9351
38.9361
38.9383
38.9352
38.9352
38.9351
38.9352
38.9351
92.3464
38.9361
38.936
38.936
38.9359
39.4382
38.9352
38.936
39.0901
92.3676
38.936
126.199
38.9353
38.9359
38.9352
38.9353
38.936
50.5587
38.9361
38.9403
81.9924
38.936
38.936
38.936
41.1625
38.936
38.936
58.8119
38.936
38.9423
106.614
38.9856
38.9361
38.9355
38.9352
71.2763
92.3384
38.9361
38.9851
38.9361
38.936
38.9352
155.317
92.3588
38.936
38.9362
155.261
38.9354
38.9404
38.9351
38.9405
38.9852
41.7304
38.9359
38.9353
38.9353
38.936
38.9406
38.936
44.978
38.936
58.7856
69.0504
93.5894
38.936
38.9393
38.936
38.9425
69.0694
38.9359
38.9354
38.9361
38.9361
39.0462
38.9354
38.9352
38.9439
38.95
58.8704
50.5697
38.936
201.061
201.21
201.154
38.936
200.876
38.9359
38.9361
201.208
92.4537
38.9353
80.3925
38.9352
38.9353
38.9354
38.9352
201.222
38.9353
201.217
38.936
201.233
201.237
38.9403
38.9853
38.9352
38.9404
38.9404
38.9359
38.9406
38.9359
38.9364
38.9359
38.936
38.9448
38.9373
38.9447
38.9454
38.936
38.9359
38.9377