/*--------------------------------*- C++ -*----------------------------------*\
| =========                 |                                                 |
| \\      /  F ield         | OpenFOAM: The Open Source CFD Toolbox           |
|  \\    /   O peration     | Version:  dev                                   |
|   \\  /    A nd           | Web:      www.OpenFOAM.org                      |
|    \\/     M anipulation  |                                                 |
\*---------------------------------------------------------------------------*/
FoamFile
{
    version     2.0;
    format      ascii;
    class       volVectorField;
    location    "0.260000";
    object      U;
}
// * * * * * * * * * * * * * * * * * * * * * * * * * * * * * * * * * * * * * //

dimensions      [0 1 -1 0 0 0 0];

internalField   nonuniform List<vector> 
87727
(
(5.28232 -0.0181527 2.08891e-27)
(5.2735 -0.0259951 -7.88143e-27)
(5.26937 -0.0278328 0)
(5.29887 -0.0121649 1.91319e-28)
(5.26809 -0.043967 1.3347e-26)
(5.29808 -0.00971266 3.46978e-27)
(5.31319 -0.0245134 2.22131e-27)
(5.3164 -0.0879984 -2.01802e-28)
(5.32036 -0.0400861 -5.98574e-28)
(5.30605 -0.0112127 5.88875e-28)
(5.32245 -0.0726435 -4.40068e-28)
(5.32335 -0.0666399 1.87875e-27)
(5.30612 -0.0123371 0)
(5.30743 -0.00714432 5.57781e-27)
(5.30923 -0.0988487 -1.82643e-28)
(5.30614 -0.0143809 0)
(5.32302 -0.0510335 -4.6526e-27)
(5.30756 -0.0171295 1.28122e-28)
(5.30596 -0.00800139 4.64899e-27)
(5.30543 -0.00991216 4.67767e-27)
(5.3059 -0.00848515 -4.64818e-27)
(5.30936 -0.0199414 -1.06309e-27)
(5.30661 -0.0155128 7.11647e-28)
(5.32212 -0.046625 -1.16241e-27)
(5.28392 -0.113637 -1.13746e-27)
(5.27977 -0.115284 9.96452e-27)
(5.31882 -0.0366587 0)
(5.29863 -0.108437 -1.38417e-27)
(5.3125 -0.0292659 -1.11432e-27)
(5.30272 -0.0111562 0)
(5.30564 -0.0147005 1.18897e-27)
(5.30576 -0.0103629 1.17105e-27)
(5.30826 -0.0177341 -2.27103e-27)
(5.30861 -0.0186719 7.29793e-29)
(5.31621 -0.0298495 -5.3052e-29)
(5.30375 -0.0118665 0)
(5.30527 -0.00928322 -3.21581e-29)
(5.30547 -0.0097204 2.33148e-27)
(5.31053 -0.0220236 -8.94271e-28)
(5.27214 -0.034104 0)
(5.31251 -0.0253152 -4.85936e-27)
(5.31358 -0.0271189 2.43716e-27)
(5.31062 -0.0206311 -1.3931e-28)
(5.30592 -0.0116723 0)
(5.29985 -0.0108343 4.6232e-27)
(5.31568 -0.0306473 9.75987e-29)
(5.30775 -0.0211182 -4.32115e-27)
(5.29779 -0.00907938 6.38903e-29)
(5.30061 -0.011683 1.35047e-28)
(5.30547 -0.0086798 4.67247e-27)
(5.30511 -0.0138543 -9.55026e-29)
(5.31779 -0.0730546 -6.93999e-27)
(5.29881 -0.0099078 4.02461e-28)
(5.27337 -0.0342659 0)
(5.3059 -0.0128583 0)
(5.30606 -0.0135363 -8.92482e-29)
(5.31774 -0.0345684 -1.6271e-28)
(5.30176 -0.0123213 2.34157e-27)
(5.29835 -0.0101526 1.0393e-27)
(5.26808 -0.0662503 0)
(5.26922 -0.0770914 0)
(5.26552 -0.0464948 -7.23233e-27)
(5.26656 -0.0478184 0)
(5.2754 -0.108227 0)
(5.26632 -0.0352971 -5.04356e-28)
(5.26704 -0.0304971 -1.52794e-26)
(5.26603 -0.0545687 -7.3758e-28)
(5.30452 -0.0173358 -9.44371e-27)
(5.26684 -0.044231 0)
(5.28005 -0.0159516 1.79293e-26)
(5.28651 -0.0138489 0)
(5.29192 -0.0138978 1.0884e-26)
(5.30129 -0.0130947 4.68263e-27)
(5.276 -0.0242299 1.60181e-26)
(5.28002 -0.0211207 0)
(5.27698 -0.0234631 4.06476e-27)
(5.27537 -0.0246601 1.25324e-28)
(5.26631 -0.0365913 -1.47379e-26)
(5.28333 -0.0148166 -1.96941e-27)
(5.30473 -0.0177466 -5.27238e-27)
(5.27146 -0.0270193 7.9751e-27)
(5.28179 -0.0189759 2.09269e-27)
(5.28051 -0.0207688 0)
(5.30454 -0.0128157 1.1769e-27)
(5.30231 -0.0108683 -1.1647e-27)
(5.30869 -0.02571 0)
(5.28334 -0.0151444 0)
(5.29998 -0.0113664 -4.61356e-27)
(5.28282 -0.0171891 -4.19943e-27)
(5.2706 -0.0274599 6.6956e-31)
(5.29736 -0.00899542 5.29193e-27)
(5.30041 -0.0120511 -9.08261e-27)
(5.30703 -0.0160227 7.15753e-28)
(5.30746 -0.0168712 -2.40014e-27)
(5.3071 -0.0163511 0)
(5.30615 -0.0146494 7.03178e-28)
(5.26743 -0.0286612 1.53106e-26)
(5.29289 -0.012928 1.01801e-27)
(5.32144 -0.0438348 -2.34976e-27)
(5.28338 -0.014852 0)
(5.27952 -0.0202924 2.60572e-28)
(5.29956 -0.0131136 0)
(5.29969 -0.00871481 4.6336e-27)
(5.30214 -0.012781 2.34752e-27)
(5.28276 -0.0169116 1.86376e-28)
(5.26692 -0.03116 0)
(5.30578 -0.0177622 -4.07997e-28)
(5.30797 -0.0176437 -1.21037e-27)
(5.29836 -0.0130021 -9.42313e-27)
(5.30552 -0.00912182 4.68382e-27)
(5.31993 -0.0754714 0)
(5.30574 -0.010664 -5.8697e-28)
(5.307 -0.0164374 1.21624e-28)
(5.28185 -0.0242315 0)
(5.30104 -0.013477 0)
(5.3211 -0.0474996 -3.21151e-28)
(5.26684 -0.0287136 3.08645e-26)
(5.32353 -0.0557056 -2.28933e-27)
(5.27697 -0.0248419 1.15457e-27)
(5.29908 -0.0106619 -1.31815e-28)
(5.30044 -0.0166965 -9.17021e-27)
(5.29858 -0.0106842 -5.80915e-28)
(5.3237 -0.0627551 0)
(5.27924 -0.020832 5.82744e-28)
(5.29507 -0.0115323 -1.81412e-27)
(5.31311 -0.0575288 0)
(5.30588 -0.0139142 0)
(5.27538 -0.0275429 0)
(5.30956 -0.019334 -2.48893e-27)
(5.30432 -0.0122934 0)
(5.29933 -0.0110445 1.26573e-28)
(5.31317 -0.0247494 2.61741e-27)
(5.32068 -0.079158 6.4211e-28)
(5.31436 -0.0289676 -2.34665e-28)
(5.26961 -0.080444 -7.21071e-29)
(5.31951 -0.0377964 0)
(5.29998 -0.0143289 0)
(5.30655 -0.0151414 4.91661e-28)
(5.3075 -0.0168222 -1.2295e-28)
(5.30182 -0.0141136 9.59231e-27)
(5.30495 -0.0132956 1.18069e-27)
(5.29988 -0.011323 1.34122e-28)
(5.30663 -0.0342592 6.65168e-27)
(5.30812 -0.0180484 -1.21372e-27)
(5.31145 -0.0239704 7.47011e-28)
(5.28125 -0.0211526 -8.29259e-27)
(5.3047 -0.0154937 2.02821e-28)
(5.30884 -0.0191924 0)
(5.31599 -0.0325379 -2.19591e-27)
(5.3063 -0.0155775 1.2906e-27)
(5.29991 -0.0121598 2.68293e-28)
(5.27122 -0.0730741 0)
(5.3003 -0.0123128 -1.38153e-26)
(5.27717 -0.0294992 8.09491e-27)
(5.30965 -0.0205528 -1.22164e-27)
(5.29626 -0.0094339 -2.01944e-27)
(5.28636 -0.0190158 -6.89545e-26)
(5.30352 -0.0140993 2.36201e-27)
(5.26893 -0.0600739 -1.0148e-26)
(5.32157 -0.0534197 6.90007e-27)
(5.29963 -0.011237 1.6408e-28)
(5.30634 -0.0078307 9.24231e-27)
(5.3123 -0.094614 -6.06712e-28)
(5.31022 -0.0213572 -1.22229e-27)
(5.30377 -0.0248944 -2.23423e-27)
(5.2981 -0.00937429 -2.17111e-27)
(5.26611 -0.0341643 0)
(5.26611 -0.0336647 -1.48855e-26)
(5.27657 -0.0307484 -4.74057e-27)
(5.2763 -0.0299123 -1.61917e-26)
(5.27907 -0.0214853 1.09061e-28)
(5.26611 -0.0394061 -7.07903e-27)
(5.26633 -0.0386715 0)
(5.29775 -0.00927764 -4.56647e-27)
(5.27469 -0.0297296 -3.2239e-26)
(5.31147 -0.0236032 -2.42794e-27)
(5.26594 -0.0411786 7.21316e-27)
(5.2666 -0.0424847 1.06315e-28)
(5.31111 -0.0228571 0)
(5.31209 -0.0244759 -2.43082e-27)
(5.31528 -0.0297849 0)
(5.31316 -0.0262363 -2.42939e-27)
(5.30085 -0.0128842 0)
(5.27733 -0.0302573 1.56078e-26)
(5.31465 -0.0288807 0)
(5.31423 -0.0280096 0)
(5.3009 -0.0130456 0)
(5.27047 -0.043082 0)
(5.32033 -0.0480817 0)
(5.27735 -0.0330835 -1.90295e-27)
(5.30154 -0.0138104 4.64091e-27)
(5.27439 -0.0268787 0)
(5.31728 -0.0336169 0)
(5.30303 -0.013709 2.50754e-27)
(5.27914 -0.0194508 2.76735e-28)
(5.26771 -0.0316426 3.03083e-26)
(5.27632 -0.0240256 1.63256e-26)
(5.30168 -0.010492 -1.22045e-27)
(5.27927 -0.0216884 2.05439e-27)
(5.27814 -0.022647 6.10745e-27)
(5.27171 -0.0295982 -3.85527e-27)
(5.30535 -0.033731 -4.93951e-27)
(5.30142 -0.0136534 2.73043e-28)
(5.30339 -0.01151 0)
(5.27455 -0.0251589 7.30636e-30)
(5.31668 -0.0325627 0)
(5.31627 -0.0316465 -3.82861e-29)
(5.27243 -0.0265101 -7.93036e-27)
(5.2814 -0.0199648 2.02007e-27)
(5.28099 -0.0204582 2.00021e-27)
(5.2667 -0.0519762 1.19197e-29)
(5.26619 -0.0529509 0)
(5.28283 -0.0158178 0)
(5.28242 -0.0159876 -9.92191e-29)
(5.3027 -0.015095 -2.8172e-28)
(5.30558 -0.0265757 2.32227e-27)
(5.27792 -0.0295018 1.57213e-26)
(5.27357 -0.0262498 -1.96643e-27)
(5.28277 -0.0173815 -4.74279e-27)
(5.31877 -0.035647 -9.0555e-29)
(5.32149 -0.0676356 -4.1912e-27)
(5.26984 -0.0278553 -8.04335e-27)
(5.29962 -0.0118474 -2.18395e-27)
(5.27535 -0.0292672 -3.14484e-26)
(5.31176 -0.085069 -9.18483e-28)
(5.28173 -0.0196418 9.38903e-28)
(5.31222 -0.0229149 5.77133e-27)
(5.30048 -0.0152322 -4.26723e-28)
(5.28799 -0.0151245 1.66906e-26)
(5.31986 -0.0388968 0)
(5.27967 -0.0187133 0)
(5.26626 -0.0281516 0)
(5.26861 -0.0281572 -1.55187e-26)
(5.30183 -0.0150122 -4.10343e-28)
(5.30045 -0.009108 4.67441e-27)
(5.29823 -0.0116442 6.87411e-29)
(5.30102 -0.0120663 0)
(5.2669 -0.0600655 0)
(5.26671 -0.0586506 0)
(5.29909 -0.0125952 -2.23564e-28)
(5.27089 -0.0284479 7.81426e-27)
(5.31972 -0.0401606 0)
(5.30085 -0.017308 1.82289e-26)
(5.30004 -0.034354 4.32269e-27)
(5.32113 -0.0425459 1.18453e-27)
(5.26725 -0.0645957 0)
(5.26748 -0.0631302 0)
(5.29877 -0.0133981 0)
(5.2682 -0.0307014 -1.53222e-26)
(5.28263 -0.0167797 0)
(5.29241 -0.0287673 8.12827e-27)
(5.30328 -0.104921 -2.71979e-28)
(5.32273 -0.0495261 0)
(5.31835 -0.0356476 -1.712e-28)
(5.30606 -0.0151528 2.69164e-27)
(5.30558 -0.0163676 2.18449e-28)
(5.3234 -0.0540887 -4.57922e-27)
(5.30233 -0.0145842 4.38298e-27)
(5.29738 -0.00890722 4.37515e-27)
(5.31941 -0.0377996 -3.68603e-28)
(5.3003 -0.0124491 -1.31956e-28)
(5.26772 -0.0362256 -1.4356e-26)
(5.31525 -0.0280526 -2.46529e-27)
(5.29524 -0.0116997 4.92165e-27)
(5.26664 -0.0284873 0)
(5.30548 -0.0142577 0)
(5.31876 -0.040625 2.40319e-27)
(5.30036 -0.00931303 -1.60668e-29)
(5.32379 -0.0608995 1.9598e-27)
(5.30274 -0.0131089 0)
(5.30141 -0.014598 -4.64136e-27)
(5.30049 -0.0124995 -4.60597e-27)
(5.29711 -0.00857273 -2.16607e-27)
(5.29571 -0.0298777 3.33132e-26)
(5.26967 -0.0722117 0)
(5.26897 -0.0743198 0)
(5.30747 -0.0181378 2.37874e-28)
(5.3188 -0.0732172 -7.26312e-27)
(5.30027 -0.0128036 1.34435e-28)
(5.29992 -0.0116752 -9.05853e-27)
(5.32278 -0.0706092 -1.65074e-27)
(5.30087 -0.0137788 2.30853e-27)
(5.31016 -0.0245582 -2.45411e-28)
(5.29042 -0.0329185 -6.64977e-26)
(5.32143 -0.076938 0)
(5.32071 -0.0412585 5.90718e-28)
(5.28501 -0.0157575 -3.42307e-26)
(5.26658 -0.0286809 1.56659e-26)
(5.26783 -0.0351804 -5.31744e-30)
(5.29972 -0.0204033 -6.2369e-28)
(5.31765 -0.0858085 1.06153e-29)
(5.31603 -0.0300435 7.50507e-28)
(5.31775 -0.0478787 2.69774e-28)
(5.30433 -0.0149723 2.19724e-27)
(5.31021 -0.0199721 -2.42337e-27)
(5.3021 -0.0796815 1.33993e-27)
(5.29421 -0.0107712 3.94477e-28)
(5.27162 -0.0381811 -2.86141e-26)
(5.30014 -0.0160596 -2.76356e-26)
(5.28518 -0.0152186 8.61885e-27)
(5.3137 -0.0924085 0)
(5.29488 -0.0109344 0)
(5.30176 -0.0136422 -1.01302e-30)
(5.32183 -0.0452384 -3.50404e-27)
(5.29724 -0.00797262 0)
(5.29485 -0.0113011 3.62251e-27)
(5.28245 -0.015286 0)
(5.29283 -0.0139022 3.01525e-30)
(5.28497 -0.014978 -1.67739e-27)
(5.28542 -0.0145662 4.72392e-27)
(5.2972 -0.00887618 2.34431e-27)
(5.32248 -0.0480737 0)
(5.27152 -0.0932781 1.95665e-28)
(5.29294 -0.0143202 1.67278e-26)
(5.3232 -0.0525244 -5.7615e-27)
(5.27605 -0.0285464 7.75561e-28)
(5.32206 -0.0638043 -3.6477e-28)
(5.31028 -0.0225255 3.64422e-27)
(5.31043 -0.0210578 -5.94131e-28)
(5.30218 -0.0154545 8.98514e-27)
(5.26803 -0.0538285 1.15508e-26)
(5.30501 -0.0267394 0)
(5.30023 -0.0082824 -1.15288e-26)
(5.30517 -0.0158269 2.10623e-28)
(5.29562 -0.0153789 4.86213e-28)
(5.28025 -0.0151782 -1.81628e-26)
(5.31039 -0.083235 -6.03826e-28)
(5.3086 -0.0182123 -2.27672e-27)
(5.30749 -0.0257808 2.34903e-27)
(5.27461 -0.0323402 -9.42513e-26)
(5.30087 -0.00961744 1.18115e-30)
(5.30603 -0.0167401 0)
(5.32375 -0.0591264 2.03411e-27)
(5.27848 -0.0221025 0)
(5.3237 -0.0573826 2.18743e-27)
(5.30538 -0.102924 1.60265e-28)
(5.27453 -0.0257614 6.54098e-30)
(5.27807 -0.0304052 0)
(5.28105 -0.0155808 1.76074e-26)
(5.30384 -0.0146626 2.36585e-27)
(5.32358 -0.0646632 0)
(5.27991 -0.0213778 2.21016e-27)
(5.30804 -0.0185937 2.7862e-27)
(5.30777 -0.0172659 1.11122e-28)
(5.32311 -0.0685921 1.82856e-27)
(5.28093 -0.0180847 -3.7984e-27)
(5.27607 -0.0266082 -2.247e-28)
(5.29463 -0.0105687 -2.1662e-30)
(5.30115 -0.0142067 -1.44642e-30)
(5.27303 -0.0269137 -1.98049e-27)
(5.2866 -0.0159248 -7.78642e-28)
(5.30023 -0.0319203 -8.55123e-27)
(5.30824 -0.0235019 7.85925e-28)
(5.27463 -0.0279621 6.45918e-26)
(5.26968 -0.028827 3.05504e-26)
(5.28634 -0.0185119 -6.88729e-26)
(5.32197 -0.0747592 0)
(5.27149 -0.0299375 3.10428e-26)
(5.29323 -0.0134635 9.02983e-28)
(5.31525 -0.0477683 8.93704e-28)
(5.3211 -0.0436574 -3.27534e-27)
(5.3169 -0.0318619 1.74449e-27)
(5.28263 -0.0174954 2.53754e-28)
(5.26829 -0.0473735 2.21738e-28)
(5.30675 -0.0160188 2.72158e-27)
(5.28001 -0.0177608 -5.6861e-28)
(5.29748 -0.00896269 1.3602e-26)
(5.26743 -0.0297627 1.53686e-26)
(5.27142 -0.0280863 7.79756e-27)
(5.31879 -0.0835821 -2.38557e-28)
(5.30344 -0.0155837 -1.78112e-28)
(5.31982 -0.0813926 5.61715e-28)
(5.30216 -0.0139874 -4.53657e-27)
(5.30289 -0.0824134 1.25758e-27)
(5.32186 -0.0477515 2.49743e-28)
(5.27048 -0.0899789 0)
(5.27141 -0.086872 0)
(5.31158 -0.0225011 -4.83228e-27)
(5.28188 -0.0718397 2.04563e-27)
(5.30983 -0.094648 0)
(5.27817 -0.0251414 -9.37951e-27)
(5.30855 -0.0206235 0)
(5.31244 -0.0378997 5.10829e-27)
(5.29995 -0.0121495 -2.30836e-27)
(5.30659 -0.00733361 9.15196e-27)
(5.3151 -0.0902123 0)
(5.32242 -0.0521559 0)
(5.29324 -0.0126201 5.47881e-27)
(5.29553 -0.011695 1.75254e-28)
(5.28058 -0.0206995 -1.46051e-27)
(5.31747 -0.0663509 -8.33088e-28)
(5.26882 -0.0313109 3.31918e-26)
(5.29439 -0.0434354 0)
(5.27018 -0.0827684 -2.27666e-28)
(5.31568 -0.0290996 0)
(5.2686 -0.0701485 -2.03215e-27)
(5.27328 -0.0976725 2.94481e-28)
(5.26705 -0.0562029 -6.2175e-27)
(5.31155 -0.0334688 3.41161e-28)
(5.28317 -0.0207271 -1.38078e-26)
(5.26672 -0.0497127 5.79736e-27)
(5.2668 -0.0448545 -5.62536e-28)
(5.26697 -0.0365909 0)
(5.27125 -0.0325697 1.22084e-27)
(5.26622 -0.0326148 0)
(5.29588 -0.0398435 2.14198e-26)
(5.27058 -0.0303078 -1.98179e-25)
(5.30065 -0.0129861 -3.9494e-28)
(5.31402 -0.0882317 -8.67988e-28)
(5.28664 -0.0144921 -3.9284e-27)
(5.29957 -0.0134896 0)
(5.29719 -0.00859709 8.36336e-29)
(5.29433 -0.0292288 4.78367e-27)
(5.29291 -0.0137257 2.34115e-27)
(5.31512 -0.0282451 4.78787e-27)
(5.29286 -0.0136869 0)
(5.28637 -0.0142421 -1.06538e-26)
(5.28701 -0.0138344 8.69371e-27)
(5.28841 -0.0142725 2.16134e-27)
(5.2943 -0.0120551 0)
(5.28135 -0.0150349 1.58639e-26)
(5.29407 -0.0103606 4.92361e-27)
(5.29575 -0.011992 9.23475e-27)
(5.28653 -0.0139036 8.67692e-27)
(5.28655 -0.0144099 1.05787e-26)
(5.30108 -0.0133834 -2.69366e-28)
(5.29835 -0.00959874 -2.32925e-29)
(5.2871 -0.014227 0)
(5.31124 -0.0213852 3.08072e-28)
(5.28306 -0.0175973 6.90285e-26)
(5.3068 -0.0220547 -4.56177e-28)
(5.31366 -0.0253335 2.42529e-27)
(5.32081 -0.0424352 -4.16249e-28)
(5.29627 -0.0124399 0)
(5.29942 -0.0146139 -4.59119e-27)
(5.27539 -0.0329214 1.44787e-28)
(5.30697 -0.0989937 -3.85471e-28)
(5.31406 -0.0410888 -1.29525e-27)
(5.29454 -0.00991109 1.68328e-28)
(5.29877 -0.00993734 0)
(5.29314 -0.111116 0)
(5.29671 -0.0127096 -1.82217e-26)
(5.29756 -0.00918116 -2.27222e-27)
(5.28387 -0.0165742 -3.59721e-28)
(5.30012 -0.016204 4.03786e-28)
(5.26944 -0.0436822 1.31698e-26)
(5.28003 -0.0154974 -1.75768e-26)
(5.30788 -0.0241709 5.99771e-28)
(5.30115 -0.0385867 -8.21991e-27)
(5.31082 -0.096744 -4.92887e-28)
(5.30092 -0.104344 -7.4199e-29)
(5.30129 -0.0423846 1.7269e-26)
(5.26853 -0.0305161 8.74991e-29)
(5.27667 -0.0277889 3.50392e-26)
(5.29521 -0.0111168 -9.10547e-27)
(5.28824 -0.0148896 1.74977e-26)
(5.27627 -0.0318403 4.01308e-29)
(5.31754 -0.0326262 -5.34653e-28)
(5.27607 -0.0312919 -3.89735e-27)
(5.28452 -0.017561 4.11449e-29)
(5.2963 -0.107951 2.89653e-27)
(5.27614 -0.0281204 4.41881e-27)
(5.30739 -0.100888 9.07681e-30)
(5.30259 -0.0159255 9.48646e-27)
(5.2983 -0.00926212 1.26811e-31)
(5.32266 -0.0569147 2.19334e-27)
(5.29076 -0.111849 0)
(5.28327 -0.0160716 5.52567e-29)
(5.30081 -0.0157816 -9.62189e-27)
(5.29487 -0.011794 3.56514e-27)
(5.26967 -0.0661235 0)
(5.31914 -0.0367147 -1.00779e-28)
(5.31181 -0.0712604 1.93308e-27)
(5.2997 -0.0151054 -9.36874e-27)
(5.27605 -0.02469 -2.6679e-28)
(5.30062 -0.0166652 9.54713e-28)
(5.27553 -0.0306277 -1.56637e-26)
(5.27824 -0.0216265 0)
(5.30295 -0.0214411 0)
(5.27523 -0.0251841 6.53996e-28)
(5.27877 -0.0210395 -5.49324e-28)
(5.30358 -0.0173409 9.35782e-27)
(5.28194 -0.0240346 8.98258e-28)
(5.31777 -0.0362878 -4.73749e-27)
(5.31653 -0.0839919 -3.46614e-28)
(5.30486 -0.0274543 5.98541e-28)
(5.27239 -0.0274292 -3.32306e-28)
(5.30143 -0.0101982 -2.40239e-27)
(5.29551 -0.0118192 9.42156e-27)
(5.29988 -0.0140042 0)
(5.32095 -0.0574023 -4.70099e-27)
(5.31945 -0.0389242 -2.97151e-28)
(5.28297 -0.0149899 -5.80309e-28)
(5.31146 -0.0262261 -1.29821e-26)
(5.29275 -0.0135585 0)
(5.31664 -0.0307288 -5.60938e-28)
(5.27206 -0.02781 2.61247e-29)
(5.28482 -0.015006 -1.69151e-27)
(5.30663 -0.0242945 5.5318e-27)
(5.29704 -0.0296744 4.29443e-27)
(5.28041 -0.0169685 -1.68705e-26)
(5.2723 -0.0376102 1.38171e-28)
(5.30317 -0.0218984 4.50523e-27)
(5.31741 -0.0327617 -2.96377e-27)
(5.28211 -0.0150709 -1.71648e-26)
(5.31669 -0.0412044 2.35667e-27)
(5.28037 -0.0328677 -4.16507e-27)
(5.30418 -0.0244787 -6.72107e-27)
(5.29027 -0.0144624 0)
(5.28631 -0.014077 -8.66554e-27)
(5.28258 -0.021796 -8.56613e-28)
(5.30202 -0.0248958 -4.46506e-27)
(5.32136 -0.0449871 -1.30715e-27)
(5.28104 -0.0796941 0)
(5.29686 -0.00947473 2.31828e-27)
(5.28256 -0.0161238 1.59613e-27)
(5.30316 -0.0213967 0)
(5.307 -0.0176149 2.64391e-27)
(5.29306 -0.0141654 4.4337e-27)
(5.28678 -0.0150929 1.69933e-27)
(5.30434 -0.0164801 5.09245e-27)
(5.29987 -0.0155817 -8.81073e-27)
(5.26853 -0.0363755 2.88946e-26)
(5.29715 -0.00979462 1.38681e-26)
(5.2952 -0.0100201 3.00966e-29)
(5.30739 -0.0193713 -2.37508e-27)
(5.2952 -0.0121053 4.48283e-27)
(5.30375 -0.0164169 4.36153e-27)
(5.30392 -0.0159293 -3.47795e-28)
(5.28328 -0.0162558 0)
(5.28158 -0.0206623 1.51708e-27)
(5.30023 -0.0148481 -2.20352e-28)
(5.29341 -0.0154689 2.99931e-28)
(5.29755 -0.021274 -2.21205e-27)
(5.28535 -0.027878 -1.05507e-26)
(5.28018 -0.0166351 -4.99318e-26)
(5.30302 -0.0150247 3.11771e-28)
(5.32103 -0.0626538 -4.3718e-28)
(5.30176 -0.018891 -2.56151e-27)
(5.29774 -0.00988312 9.59492e-29)
(5.29515 -0.0106451 -4.57274e-27)
(5.30004 -0.0157654 4.4309e-28)
(5.31396 -0.0328821 -1.00395e-27)
(5.29969 -0.0150289 -2.2592e-28)
(5.30374 -0.0223054 -3.39043e-27)
(5.27015 -0.0330114 3.03051e-26)
(5.31096 -0.0217868 -2.69226e-28)
(5.27319 -0.0293445 1.45424e-26)
(5.30592 -0.0843141 5.67231e-28)
(5.28625 -0.0277376 0)
(5.27382 -0.0616011 7.07966e-28)
(5.30094 -0.00986264 -2.2969e-27)
(5.2716 -0.0622061 3.60828e-28)
(5.29935 -0.0116703 1.2941e-27)
(5.2934 -0.0131087 5.36383e-27)
(5.30898 -0.0706733 3.35491e-27)
(5.2866 -0.0178973 -2.3288e-29)
(5.30545 -0.0295784 -1.8415e-27)
(5.29718 -0.00899638 1.05236e-26)
(5.27219 -0.0298446 -1.09815e-27)
(5.29389 -0.0140465 3.94463e-28)
(5.32101 -0.0461501 4.49435e-27)
(5.3181 -0.0383357 2.93245e-28)
(5.32037 -0.0664364 -1.39714e-27)
(5.28545 -0.0155225 0)
(5.30999 -0.0266592 -1.86222e-27)
(5.31344 -0.0673267 3.47742e-28)
(5.28323 -0.0156963 0)
(5.32127 -0.0611466 0)
(5.28375 -0.0160656 7.89516e-28)
(5.30105 -0.106799 -3.36836e-28)
(5.29712 -0.00880084 6.44958e-27)
(5.31505 -0.0450053 1.10202e-27)
(5.26716 -0.0332814 -4.46869e-26)
(5.29899 -0.0104134 -1.826e-28)
(5.30328 -0.0168683 1.86526e-26)
(5.28874 -0.0514587 2.24216e-26)
(5.26838 -0.035224 2.92505e-26)
(5.30781 -0.0392259 1.78356e-26)
(5.30195 -0.0217163 -1.78724e-26)
(5.30999 -0.0418967 0)
(5.30375 -0.0225777 -1.21992e-27)
(5.30979 -0.0282983 7.8291e-28)
(5.27796 -0.0803719 -3.06511e-27)
(5.2973 -0.00844721 1.51262e-27)
(5.28658 -0.0172334 3.89373e-28)
(5.32186 -0.0656837 -2.09938e-28)
(5.29304 -0.0143452 -8.02947e-27)
(5.2831 -0.0155411 -3.48955e-27)
(5.31798 -0.0336195 0)
(5.31268 -0.0236844 0)
(5.29166 -0.0144013 2.54552e-26)
(5.29954 -0.0108549 -6.79754e-29)
(5.30427 -0.0169009 -4.68447e-27)
(5.30033 -0.0255327 5.53516e-28)
(5.29717 -0.0132287 -1.86787e-26)
(5.29611 -0.0120278 1.82587e-26)
(5.31357 -0.0441642 4.42597e-27)
(5.29851 -0.00949774 3.91026e-28)
(5.31318 -0.059038 -5.72344e-27)
(5.30469 -0.0187265 -1.94666e-26)
(5.26703 -0.0407962 7.03915e-27)
(5.28663 -0.0170631 7.04254e-26)
(5.30916 -0.0187787 0)
(5.28984 -0.112781 -3.22558e-27)
(5.26932 -0.0314354 2.75884e-26)
(5.28642 -0.0145937 1.82413e-27)
(5.27983 -0.0221457 2.0066e-26)
(5.29618 -0.109991 2.66399e-27)
(5.30395 -0.024127 -4.28986e-27)
(5.30488 -0.0271444 6.13662e-28)
(5.29732 -0.00835754 4.87549e-28)
(5.28642 -0.014884 -8.67038e-27)
(5.29344 -0.0152372 -3.56641e-26)
(5.2671 -0.0464892 -1.93621e-26)
(5.30691 -0.0363843 1.91821e-27)
(5.27162 -0.100422 -2.23546e-29)
(5.2752 -0.0291368 6.32048e-26)
(5.29426 -0.0125852 0)
(5.30266 -0.0229421 -5.77404e-27)
(5.29582 -0.0112403 -9.10136e-27)
(5.30161 -0.0190019 -4.23841e-27)
(5.29364 -0.0136911 4.22547e-28)
(5.2977 -0.0135397 3.65141e-26)
(5.28643 -0.0144427 6.80576e-27)
(5.31167 -0.0273937 -1.4216e-26)
(5.30298 -0.0189885 -2.3674e-26)
(5.30228 -0.020257 0)
(5.28292 -0.0170529 3.9756e-28)
(5.30447 -0.0250242 -9.56532e-27)
(5.26778 -0.0394346 -7.04531e-27)
(5.28651 -0.0154538 0)
(5.27457 -0.0755499 0)
(5.32225 -0.0506615 0)
(5.30856 -0.0191973 -6.71535e-31)
(5.31742 -0.0450259 6.614e-27)
(5.30689 -0.0291111 2.48307e-29)
(5.28519 -0.0294814 6.51807e-27)
(5.3049 -0.0452679 0)
(5.30133 -0.0995071 2.75265e-28)
(5.30213 -0.02101 -1.71206e-26)
(5.30038 -0.0216305 -9.75843e-27)
(5.29479 -0.103749 0)
(5.3142 -0.02626 0)
(5.28348 -0.0322964 -1.76842e-26)
(5.31473 -0.0348692 -1.66715e-27)
(5.30798 -0.0417778 0)
(5.30503 -0.0178139 -5.11134e-27)
(5.3157 -0.0289237 -2.43085e-27)
(5.31998 -0.0453359 0)
(5.30113 -0.0227814 -2.43593e-27)
(5.27036 -0.0347518 -5.08689e-28)
(5.30151 -0.0171481 3.17351e-27)
(5.28141 -0.0159765 1.35509e-25)
(5.26845 -0.0461732 -1.32732e-26)
(5.28557 -0.016582 0)
(5.31629 -0.0395096 0)
(5.26766 -0.0380948 -1.41024e-26)
(5.30471 -0.0241811 -2.04789e-27)
(5.27792 -0.0287594 7.15633e-27)
(5.30451 -0.0331874 -5.26255e-28)
(5.26831 -0.0333386 -5.94885e-26)
(5.29902 -0.0112078 5.77357e-28)
(5.30145 -0.0298193 -2.52732e-26)
(5.26975 -0.0359843 2.92051e-26)
(5.28595 -0.0193458 -3.30658e-28)
(5.28435 -0.0168455 0)
(5.31534 -0.0536915 8.41277e-27)
(5.27631 -0.0242456 -8.45484e-27)
(5.30751 -0.0687689 5.55647e-27)
(5.30791 -0.0198841 -1.9019e-27)
(5.31953 -0.0662575 1.74474e-27)
(5.2761 -0.0514791 -4.64763e-26)
(5.28303 -0.0169449 0)
(5.27764 -0.0225427 0)
(5.29307 -0.0144565 -1.68814e-26)
(5.28609 -0.0180359 -6.9117e-26)
(5.28606 -0.0173733 0)
(5.30903 -0.0568352 7.54216e-27)
(5.30266 -0.0207143 0)
(5.29534 -0.0124304 4.00289e-28)
(5.31994 -0.0460818 0)
(5.30587 -0.0187456 -2.3798e-27)
(5.30647 -0.0172453 2.39273e-27)
(5.2869 -0.0155642 -3.4608e-26)
(5.3054 -0.0186292 -4.7304e-27)
(5.29969 -0.0235095 5.41849e-27)
(5.27899 -0.0205129 -1.62042e-27)
(5.29106 -0.0284683 3.80592e-27)
(5.30513 -0.0182747 -5.09398e-27)
(5.30628 -0.0183265 0)
(5.31106 -0.0378719 -3.38203e-27)
(5.27406 -0.0290163 1.21343e-25)
(5.29806 -0.0101079 -9.03411e-27)
(5.27882 -0.0317034 3.54248e-27)
(5.31307 -0.0857113 -3.83436e-28)
(5.29299 -0.0140774 -8.89654e-27)
(5.28589 -0.0186977 -6.90031e-26)
(5.31201 -0.0355845 0)
(5.30314 -0.0210248 -9.0454e-27)
(5.3147 -0.0271252 2.46184e-28)
(5.30611 -0.0196498 -3.25462e-28)
(5.27856 -0.032617 2.63757e-27)
(5.27271 -0.0767722 0)
(5.31845 -0.0524587 -2.14501e-27)
(5.31131 -0.0388106 -2.14153e-27)
(5.31166 -0.0221196 4.86337e-27)
(5.30037 -0.0163146 0)
(5.27419 -0.0366214 -5.75197e-26)
(5.32019 -0.0400897 -2.39834e-27)
(5.31249 -0.0339127 4.6869e-27)
(5.30828 -0.0273751 2.32524e-27)
(5.3003 -0.0165417 1.79601e-26)
(5.28468 -0.0165753 -6.83289e-26)
(5.28219 -0.0281916 2.94189e-25)
(5.26981 -0.0647861 -4.54636e-27)
(5.28171 -0.0322115 -7.90311e-27)
(5.30568 -0.0289331 -1.16749e-27)
(5.30299 -0.0155455 -4.67425e-27)
(5.31035 -0.0276085 7.86793e-28)
(5.31986 -0.0389362 -1.57796e-27)
(5.27357 -0.0376494 -3.39448e-28)
(5.29058 -0.102864 6.7678e-28)
(5.28674 -0.0152741 0)
(5.28329 -0.0179315 1.93749e-28)
(5.28803 -0.015508 -8.54301e-28)
(5.32163 -0.0463387 0)
(5.31934 -0.0774716 0)
(5.30856 -0.0325913 4.57755e-27)
(5.31459 -0.0296023 1.19244e-27)
(5.29539 -0.103827 9.61354e-27)
(5.32276 -0.0585314 2.46604e-27)
(5.29913 -0.0950799 0)
(5.29336 -0.0150108 0)
(5.31186 -0.0411914 -1.351e-26)
(5.30976 -0.0204288 -9.64403e-27)
(5.26983 -0.0350661 2.92467e-26)
(5.31866 -0.0556817 4.44666e-27)
(5.28311 -0.0318822 0)
(5.26818 -0.0340809 -2.97574e-26)
(5.3061 -0.0207173 0)
(5.30527 -0.0173946 -3.78766e-28)
(5.31713 -0.0316781 6.68921e-28)
(5.31598 -0.080236 0)
(5.27669 -0.0238373 -7.90525e-27)
(5.30553 -0.0329588 1.38168e-28)
(5.27374 -0.0297639 2.10917e-25)
(5.30021 -0.0156672 -2.56543e-28)
(5.27703 -0.0232608 4.03447e-28)
(5.31019 -0.0334132 6.15772e-28)
(5.30391 -0.0193748 -1.86179e-26)
(5.31768 -0.0643776 3.56475e-27)
(5.31845 -0.0357118 1.48866e-28)
(5.27529 -0.0317663 -7.19045e-26)
(5.27789 -0.0504678 -9.37594e-26)
(5.30952 -0.0395241 -2.09688e-27)
(5.32131 -0.0489392 -5.60396e-28)
(5.28524 -0.0161038 0)
(5.30528 -0.0287558 6.84622e-28)
(5.29305 -0.0146365 3.63664e-26)
(5.28253 -0.0157693 0)
(5.27914 -0.020121 -1.10742e-27)
(5.31289 -0.0403802 -2.1288e-27)
(5.31444 -0.0337357 -9.61677e-28)
(5.31539 -0.0860893 -2.1823e-28)
(5.26971 -0.0488063 0)
(5.26702 -0.0335945 -4.43903e-29)
(5.31368 -0.0255974 -9.50878e-27)
(5.31372 -0.0484099 8.69631e-28)
(5.30047 -0.0165378 0)
(5.30463 -0.0249204 2.04919e-28)
(5.30465 -0.0208558 -1.84481e-26)
(5.29644 -0.0122644 1.82991e-26)
(5.30836 -0.0966882 -2.42089e-28)
(5.28245 -0.0310025 0)
(5.28283 -0.114744 3.42879e-29)
(5.29364 -0.0160334 5.09678e-29)
(5.30257 -0.0146399 0)
(5.28212 -0.0158767 1.54982e-26)
(5.28246 -0.0308507 -3.38985e-26)
(5.29359 -0.0156035 3.63263e-26)
(5.28141 -0.0261838 1.04011e-26)
(5.3018 -0.0548659 1.40205e-26)
(5.30816 -0.0217097 0)
(5.30187 -0.0191175 -1.75307e-27)
(5.2732 -0.0690551 0)
(5.27328 -0.105048 -2.41077e-28)
(5.26756 -0.0424883 0)
(5.28666 -0.0148972 -1.92928e-27)
(5.29411 -0.0133839 -1.83487e-26)
(5.29384 -0.0159653 3.5923e-26)
(5.27185 -0.049717 0)
(5.32137 -0.0503997 1.02532e-27)
(5.31782 -0.0371266 -3.38232e-28)
(5.30912 -0.0211684 0)
(5.31169 -0.053626 0)
(5.31837 -0.0392605 2.92233e-28)
(5.27156 -0.0348363 -1.3458e-27)
(5.27162 -0.0425272 4.63959e-28)
(5.27393 -0.0636093 -9.18753e-27)
(5.31796 -0.0466897 2.73467e-27)
(5.32209 -0.0491922 0)
(5.29036 -0.0148178 0)
(5.32048 -0.0611944 -4.05197e-29)
(5.32026 -0.0489424 9.77514e-28)
(5.30068 -0.0687851 2.18052e-26)
(5.26852 -0.0406981 -2.94386e-28)
(5.30208 -0.038571 -6.51775e-27)
(5.32075 -0.0587481 0)
(5.29584 -0.0127825 -1.81076e-26)
(5.26909 -0.041949 -6.10119e-28)
(5.30464 -0.0314074 0)
(5.28633 -0.015957 0)
(5.29058 -0.015535 3.54374e-26)
(5.26914 -0.0384503 -1.41947e-26)
(5.29704 -0.0276266 -1.38478e-27)
(5.30496 -0.0291369 0)
(5.30292 -0.0164071 9.3435e-27)
(5.26842 -0.0451154 5.10837e-29)
(5.30826 -0.0338012 -8.42683e-28)
(5.32255 -0.0602085 -6.52643e-27)
(5.31321 -0.0416166 3.24004e-27)
(5.29316 -0.0147534 -2.53204e-30)
(5.30225 -0.0671683 -2.92221e-27)
(5.29818 -0.0370896 3.43416e-26)
(5.30484 -0.0168355 4.7414e-27)
(5.29318 -0.014965 -1.73482e-26)
(5.30719 -0.0527208 -2.56589e-27)
(5.27588 -0.0624185 -9.58331e-27)
(5.26806 -0.0497509 6.15448e-27)
(5.3122 -0.03294 -1.44479e-27)
(5.32249 -0.0537166 -1.11831e-27)
(5.30203 -0.0193825 1.15387e-27)
(5.30383 -0.0237696 -1.58968e-26)
(5.3068 -0.0208658 0)
(5.31626 -0.0332727 -9.52661e-28)
(5.30299 -0.0312041 1.68841e-26)
(5.27387 -0.0795221 0)
(5.30754 -0.0438574 5.83891e-27)
(5.31465 -0.0437083 -2.24225e-27)
(5.27966 -0.0190615 9.01758e-27)
(5.31768 -0.0818012 -1.46314e-28)
(5.29305 -0.0139908 0)
(5.2968 -0.0106766 8.99041e-27)
(5.28406 -0.017629 -6.80797e-26)
(5.28691 -0.0491021 9.76551e-26)
(5.28632 -0.0166603 0)
(5.30427 -0.0516681 -3.64456e-27)
(5.31657 -0.0308945 9.45618e-28)
(5.26844 -0.0532192 1.88039e-28)
(5.30208 -0.0417047 -2.03578e-26)
(5.2696 -0.0472949 -3.97259e-29)
(5.28938 -0.0265856 6.50638e-26)
(5.28669 -0.0165517 0)
(5.26856 -0.0564571 -1.65983e-26)
(5.27112 -0.0692671 -2.19543e-27)
(5.27043 -0.0358635 -5.91686e-26)
(5.30578 -0.0191973 0)
(5.30678 -0.0817382 -6.1749e-28)
(5.31786 -0.0761961 0)
(5.29618 -0.0103899 1.85222e-26)
(5.30222 -0.0145346 4.67977e-27)
(5.29862 -0.0252992 8.72756e-27)
(5.27999 -0.0659844 -1.83754e-26)
(5.28445 -0.0171901 -3.36992e-26)
(5.2871 -0.112901 -1.9256e-28)
(5.32013 -0.0412536 -2.92744e-27)
(5.2717 -0.0521302 -2.36181e-26)
(5.27742 -0.0254554 3.20605e-26)
(5.30682 -0.0187397 2.42331e-28)
(5.32157 -0.0589903 1.57866e-26)
(5.30871 -0.0360732 4.53041e-27)
(5.30336 -0.0159483 9.1116e-27)
(5.31492 -0.0464474 2.65092e-27)
(5.28188 -0.0311745 -3.14163e-26)
(5.29559 -0.0109183 -9.15754e-27)
(5.27767 -0.0268986 3.16841e-26)
(5.2751 -0.0919136 -1.23558e-27)
(5.28535 -0.0172965 4.17299e-29)
(5.29569 -0.0101806 9.37021e-27)
(5.32053 -0.0412546 -1.19586e-27)
(5.28662 -0.0200071 5.6986e-28)
(5.28588 -0.0485 0)
(5.28445 -0.0294717 -1.02404e-27)
(5.31822 -0.0495088 2.26019e-27)
(5.29893 -0.0274346 3.30667e-27)
(5.31374 -0.0277981 -1.22837e-28)
(5.30707 -0.0337402 -2.70141e-28)
(5.2849 -0.0181734 -6.852e-26)
(5.27009 -0.0379835 -2.84609e-26)
(5.30548 -0.044776 4.15913e-28)
(5.29685 -0.0253914 1.1189e-26)
(5.28479 -0.0158802 -1.44787e-27)
(5.28272 -0.0324209 0)
(5.30254 -0.0201378 0)
(5.26746 -0.0322504 3.95239e-29)
(5.31219 -0.04526 2.62436e-27)
(5.29612 -0.0111941 -2.76838e-26)
(5.29609 -0.0156875 0)
(5.30255 -0.0197577 0)
(5.30647 -0.0203073 0)
(5.30422 -0.0239181 1.75645e-30)
(5.26855 -0.0589806 -1.0642e-26)
(5.3212 -0.0696002 1.90371e-27)
(5.31345 -0.0840034 5.95365e-28)
(5.31105 -0.0731766 0)
(5.2764 -0.0323885 -3.21321e-26)
(5.29432 -0.0138755 -1.71653e-26)
(5.30254 -0.0508822 -3.5578e-27)
(5.2962 -0.0116516 1.83217e-26)
(5.30276 -0.0342235 -1.27083e-26)
(5.28103 -0.0254774 -5.95265e-28)
(5.3074 -0.0359481 -1.06271e-27)
(5.31414 -0.0397531 -1.1422e-27)
(5.30192 -0.0141523 4.40463e-27)
(5.28256 -0.0169484 3.44232e-26)
(5.28659 -0.0163664 -4.07201e-28)
(5.32082 -0.0715325 7.36794e-27)
(5.28634 -0.0194755 6.62626e-28)
(5.27977 -0.0601464 -2.90309e-26)
(5.31734 -0.0775565 0)
(5.29719 -0.0126518 -2.61972e-28)
(5.31608 -0.0388143 9.13792e-27)
(5.29676 -0.013561 -1.48092e-28)
(5.31906 -0.0378407 -2.97393e-28)
(5.30583 -0.0202122 -7.58195e-29)
(5.2689 -0.0389147 -8.14827e-29)
(5.27286 -0.0530352 -4.86726e-28)
(5.2969 -0.0375397 0)
(5.27936 -0.019662 2.91656e-28)
(5.26978 -0.062878 2.62531e-29)
(5.30186 -0.0194737 0)
(5.30975 -0.0219417 -8.63643e-28)
(5.27907 -0.0298196 0)